&FCI NORB= 6,
NELEC= 8,
MS2= 0,
ORBSYM=0,3,0,2,0,3,
ISYM= 1,
&END
        0.72789668943829555214       1       1       1       1
        0.64481561693601008312       1       1       2       2
       -0.00401909022630388742       1       1       3       1
        0.67621919393060536674       1       1       3       3
        0.74743501066169260039       1       1       4       4
       -0.14272354208402721065       1       1       5       1
        0.09540880611473860629       1       1       5       3
        0.61336366158923072422       1       1       5       5
       -0.13874087373265689416       1       1       6       2
        0.62441295930683171633       1       1       6       6
        0.14452146857015948922       2       1       2       1
       -0.02010011136445453983       2       1       3       2
        0.04064753892717287709       2       1       5       2
       -0.04049199699143878062       2       1       6       1
       -0.07684565081435719425       2       1       6       3
        0.09892997140528561606       2       1       6       5
        0.64481561693601008312       2       2       1       1
        0.63276837198885393931       2       2       2       2
       -0.00694038308294625018       2       2       3       1
        0.59853981582144888396       2       2       3       3
        0.62864418098256158451       2       2       4       4
       -0.07550858816501195003       2       2       5       1
        0.04306711702900115762       2       2       5       3
        0.57108788096109863730       2       2       5       5
       -0.09050967449965222067       2       2       6       2
        0.61074966966788157841       2       2       6       6
       -0.00401909022630388742       3       1       1       1
       -0.00694038308294625018       3       1       2       2
        0.12417949009260370596       3       1       3       1
        0.10454521933602330119       3       1       3       3
        0.06848298807365638119       3       1       4       4
        0.02107246108446049829       3       1       5       1
        0.03052588103428584970       3       1       5       3
       -0.05878668998568713222       3       1       5       5
       -0.07578986921853403391       3       1       6       2
        0.01408603825904100083       3       1       6       6
       -0.02010011136445453983       3       2       2       1
        0.04711654602096888855       3       2       3       2
       -0.02868419716717527865       3       2       5       2
       -0.03385475329317860771       3       2       6       1
       -0.00239679665088795820       3       2       6       3
       -0.04762089879262385722       3       2       6       5
        0.67621919393060536674       3       3       1       1
        0.59853981582144888396       3       3       2       2
        0.10454521933602330119       3       3       3       1
        0.78371661217033172786       3       3       3       3
        0.72941434720320241780       3       3       4       4
       -0.08872734967377737814       3       3       5       1
        0.12087989527091250186       3       3       5       3
        0.54857339583343689426       3       3       5       5
       -0.16054306618515040705       3       3       6       2
        0.60875531803592963787       3       3       6       6
        0.14451404672587128686       4       1       4       1
        0.04670291864454052810       4       1       4       3
       -0.05925641054985061190       4       1       5       4
        0.02877671217745949098       4       2       4       2
       -0.02370218115019976854       4       2       6       4
        0.04670291864454052810       4       3       4       1
        0.05583435453249020741       4       3       4       3
       -0.00177298132187110298       4       3       5       4
        0.74743501066169260039       4       4       1       1
        0.62864418098256158451       4       4       2       2
        0.06848298807365638119       4       4       3       1
        0.72941434720320241780       4       4       3       3
        0.88015909337504538712       4       4       4       4
       -0.15863562921783430637       4       4       5       1
        0.11584305009694080557       4       4       5       3
        0.58830395969632687247       4       4       5       5
       -0.18997849031977750989       4       4       6       2
        0.62545263828204766821       4       4       6       6
       -0.14272354208402721065       5       1       1       1
       -0.07550858816501195003       5       1       2       2
        0.02107246108446049829       5       1       3       1
       -0.08872734967377737814       5       1       3       3
       -0.15863562921783430637       5       1       4       4
        0.10176552249929740612       5       1       5       1
       -0.06114397454812416088       5       1       5       3
       -0.09627838765701625390       5       1       5       5
        0.07685918893265689111       5       1       6       2
       -0.06917098951907393878       5       1       6       6
        0.04064753892717287709       5       2       2       1
       -0.02868419716717527865       5       2       3       2
        0.07140802933146929432       5       2       5       2
        0.03528359014927671261       5       2       6       1
       -0.04452142418850232181       5       2       6       3
        0.06505406679245620549       5       2       6       5
        0.09540880611473860629       5       3       1       1
        0.04306711702900115762       5       3       2       2
        0.03052588103428584970       5       3       3       1
        0.12087989527091250186       5       3       3       3
        0.11584305009694080557       5       3       4       4
       -0.06114397454812416088       5       3       5       1
        0.06821911743824084218       5       3       5       3
        0.04451198542636344152       5       3       5       5
       -0.07801414933308489785       5       3       6       2
        0.04162589242992818794       5       3       6       6
       -0.05925641054985061190       5       4       4       1
       -0.00177298132187110298       5       4       4       3
        0.03861810449161010017       5       4       5       4
        0.61336366158923072422       5       5       1       1
        0.57108788096109863730       5       5       2       2
       -0.05878668998568713222       5       5       3       1
        0.54857339583343689426       5       5       3       3
        0.58830395969632687247       5       5       4       4
       -0.09627838765701625390       5       5       5       1
        0.04451198542636344152       5       5       5       3
        0.59643981347034991103       5       5       5       5
       -0.03791273528525308106       5       5       6       2
        0.56600390414949797169       5       5       6       6
       -0.04049199699143878062       6       1       2       1
       -0.03385475329317860771       6       1       3       2
        0.03528359014927671261       6       1       5       2
        0.06195399466202462790       6       1       6       1
        0.01675916946073716107       6       1       6       3
        0.00971253817728889510       6       1       6       5
       -0.13874087373265689416       6       2       1       1
       -0.09050967449965222067       6       2       2       2
       -0.07578986921853403391       6       2       3       1
       -0.16054306618515040705       6       2       3       3
       -0.18997849031977750989       6       2       4       4
        0.07685918893265689111       6       2       5       1
       -0.07801414933308489785       6       2       5       3
       -0.03791273528525308106       6       2       5       5
        0.15226323310393019561       6       2       6       2
       -0.09389999078616313721       6       2       6       6
       -0.07684565081435719425       6       3       2       1
       -0.00239679665088795820       6       3       3       2
       -0.04452142418850232181       6       3       5       2
        0.01675916946073716107       6       3       6       1
        0.06868657373561336266       6       3       6       3
       -0.05781348998188839960       6       3       6       5
       -0.02370218115019976854       6       4       4       2
        0.02440411178726100902       6       4       6       4
        0.09892997140528561606       6       5       2       1
       -0.04762089879262385722       6       5       3       2
        0.06505406679245620549       6       5       5       2
        0.00971253817728889510       6       5       6       1
       -0.05781348998188839960       6       5       6       3
        0.11567477966983749638       6       5       6       5
        0.62441295930683171633       6       6       1       1
        0.61074966966788157841       6       6       2       2
        0.01408603825904100083       6       6       3       1
        0.60875531803592963787       6       6       3       3
        0.62545263828204766821       6       6       4       4
       -0.06917098951907393878       6       6       5       1
        0.04162589242992818794       6       6       5       3
        0.56600390414949797169       6       6       5       5
       -0.09389999078616313721       6       6       6       2
        0.61985627532543141616       6       6       6       6
       -5.71899738541990299012       1       1       0       0
       -4.77518786443414988696       2       2       0       0
       -0.19700853179592434095       3       1       0       0
       -5.01622347390147016455       3       3       0       0
       -5.25270984628420212204       4       4       0       0
        0.80038368562142869767       5       1       0       0
       -0.63890255911921478571       5       3       0       0
       -3.75861299845387009100       5       5       0       0
        1.00244356018722147184       6       2       0       0
       -3.88747639399858346820       6       6       0       0
      -51.47144007417750799505       0       0       0       0
