 &FCI NORB=  28,NELEC=28,MS2=0,
  ORBSYM=1,1,1,1,1,1,1,1,1,1,1,1,1,1,1,1,1,1,1,1,1,1,1,1,1,1,1,1,
  ISYM=1,
 &END
 0.6544049205774748    1    1    1    1
 0.1207936701814674    2    1    1    1
 0.08051876186749933    2    1    2    1
 0.2940150918083271    2    2    1    1
 -0.1171090294142113    2    2    2    1
 0.6510489337897518    2    2    2    2
 -0.01548029342571276    3    1    1    1
 -0.002282130719388575    3    1    2    1
 -0.006535108314315638    3    1    2    2
 0.00452768500206568    3    1    3    1
 -0.002220075279423714    3    2    1    1
 -0.001245924018325033    3    2    2    1
 0.001626310896971515    3    2    2    2
 -0.0001840157402468193    3    2    3    1
 0.004231229307358615    3    2    3    2
 0.1832065527223987    3    3    1    1
 0.01427511073519348    3    3    2    1
 0.1414950619758663    3    3    2    2
 0.009394829492713933    3    3    3    1
 -0.002347784747733162    3    3    3    2
 0.3671385383493116    3    3    3    3
 -0.0037851569296805    4    1    1    1
 -0.0185863235634533    4    1    2    1
 0.02081373627351468    4    1    2    2
 -0.006164964897447115    4    1    3    1
 -0.001500517078813509    4    1    3    2
 -0.006490948563673335    4    1    3    3
 0.09434944641581611    4    1    4    1
 -0.03991143077138034    4    2    1    1
 -0.02480030924619615    4    2    2    1
 0.0420686083591268    4    2    2    2
 -0.0009205752581718683    4    2    3    1
 0.002559488895124052    4    2    3    2
 -0.008056772241458577    4    2    3    3
 0.008619238595275252    4    2    4    1
 0.04425465344361636    4    2    4    2
 -0.02581840382130497    4    3    1    1
 -0.007384507887200511    4    3    2    1
 -0.00146003260960404    4    3    2    2
 5.727290017454608e-05    4    3    3    1
 0.000139873856482374    4    3    3    2
 -5.635137782621127e-05    4    3    3    3
 -0.004740400853952116    4    3    4    1
 0.003425598036840281    4    3    4    2
 0.004022493008884393    4    3    4    3
 0.5122170648246287    4    4    1    1
 0.04299972300061347    4    4    2    1
 0.3677784821081557    4    4    2    2
 -0.01394104689055339    4    4    3    1
 0.0001474133853793533    4    4    3    2
 0.1702667842681143    4    4    3    3
 0.03488032430936013    4    4    4    1
 -0.02139356273838616    4    4    4    2
 -0.02081220064834143    4    4    4    3
 0.4861910575412575    4    4    4    4
 -0.01005412762603312    5    1    1    1
 -0.003182945365219717    5    1    2    1
 -0.001697356340168875    5    1    2    2
 0.01672434795465202    5    1    3    1
 0.005875121670489198    5    1    3    2
 0.01763139659793085    5    1    3    3
 0.01332177098430486    5    1    4    1
 0.006464985835036098    5    1    4    2
 -0.004353269044485194    5    1    4    3
 -0.004304814659843842    5    1    4    4
 0.1120386174965983    5    1    5    1
 -0.002367405783803666    5    2    1    1
 -0.0007110681642962111    5    2    2    1
 -0.001948273936529504    5    2    2    2
 0.006553672430413199    5    2    3    1
 -0.001914772957468799    5    2    3    2
 0.007304274593451325    5    2    3    3
 0.006604097446820293    5    2    4    1
 -0.004542630964730011    5    2    4    2
 -0.00221619925208899    5    2    4    3
 -0.001333549650195946    5    2    4    4
 0.0350992642709492    5    2    5    1
 0.01595749273872828    5    2    5    2
 0.06471115878076607    5    3    1    1
 0.02099873455103945    5    3    2    1
 0.003058814427678194    5    3    2    2
 -0.0008196085776239274    5    3    3    1
 0.0006841831181871695    5    3    3    2
 -0.007706631605973493    5    3    3    3
 -0.005750796191774709    5    3    4    1
 -0.007594491006937859    5    3    4    2
 -0.006349723485063533    5    3    4    3
 0.04057459287815238    5    3    4    4
 0.001261886929459362    5    3    5    1
 0.0004575412955538906    5    3    5    2
 0.01671842375152776    5    3    5    3
 0.04030312307888573    5    4    1    1
 0.01752883344113703    5    4    2    1
 -0.01155350649164152    5    4    2    2
 -0.005005430355262379    5    4    3    1
 -0.002092510748788563    5    4    3    2
 -0.009650303456362834    5    4    3    3
 -0.003794072584036324    5    4    4    1
 -0.006175912386407737    5    4    4    2
 0.0009995556058385914    5    4    4    3
 0.02416080404587852    5    4    4    4
 -0.02237392455355645    5    4    5    1
 -0.007820202790849738    5    4    5    2
 0.004027235040368921    5    4    5    3
 0.0287642483951624    5    4    5    4
 0.5735039540971629    5    5    1    1
 0.1131908660891324    5    5    2    1
 0.2422367749963254    5    5    2    2
 -0.006952538285843446    5    5    3    1
 -0.001008101872707535    5    5    3    2
 0.2034195943740128    5    5    3    3
 -0.02227329341576131    5    5    4    1
 -0.03796868305005705    5    5    4    2
 -0.02137656574717322    5    5    4    3
 0.4350000197551142    5    5    4    4
 0.008615898930829886    5    5    5    1
 0.003518737358331392    5    5    5    2
 0.06337467584344247    5    5    5    3
 0.03522116698349015    5    5    5    4
 0.5589153237282931    5    5    5    5
 -0.003410958173040377    6    1    1    1
 -0.004351656652692163    6    1    2    1
 0.00284236321037359    6    1    2    2
 -0.007620783255733913    6    1    3    1
 0.002712142203014375    6    1    3    2
 -0.005122229835582981    6    1    3    3
 0.01975000392531187    6    1    4    1
 0.008000220352720161    6    1    4    2
 0.000521545929967424    6    1    4    3
 0.0065976868232061    6    1    4    4
 -0.02686197590243499    6    1    5    1
 -0.01344182472558781    6    1    5    2
 -0.001817665256265696    6    1    5    3
 0.003958099697278816    6    1    5    4
 -0.01134524887348489    6    1    5    5
 0.01935013897218458    6    1    6    1
 -0.005957131074155681    6    2    1    1
 -0.005250469328728101    6    2    2    1
 0.008120622188924651    6    2    2    2
 0.00281625417142973    6    2    3    1
 -0.01553402823693147    6    2    3    2
 8.548954742805754e-05    6    2    3    3
 0.009028125218213424    6    2    4    1
 -0.01096932562348933    6    2    4    2
 -0.001209946027968821    6    2    4    3
 -0.004979555058878283    6    2    4    4
 -0.01237046399478244    6    2    5    1
 0.0127522979622086    6    2    5    2
 -0.00209959562068148    6    2    5    3
 0.003039729017363063    6    2    5    4
 -0.007140338417830737    6    2    5    5
 -0.01455795804367735    6    2    6    1
 0.06523299303622832    6    2    6    2
 -0.02455416495693158    6    3    1    1
 0.0138194091267021    6    3    2    1
 -0.06598799014901646    6    3    2    2
 0.003761756528116402    6    3    3    1
 0.0004053890172956612    6    3    3    2
 0.06334396450955941    6    3    3    3
 -0.006211972298197832    6    3    4    1
 -0.005944301290172843    6    3    4    2
 -0.001854806156037097    6    3    4    3
 -0.03238360018627433    6    3    4    4
 0.003681871377105533    6    3    5    1
 0.0009736877661827124    6    3    5    2
 0.0009354412177160713    6    3    5    3
 -0.0003916459757414904    6    3    5    4
 -0.01299066790695922    6    3    5    5
 -0.0005788174262711016    6    3    6    1
 -0.003333103694740353    6    3    6    2
 0.04287427765030105    6    3    6    3
 0.07129050398095307    6    4    1    1
 0.0293681443043358    6    4    2    1
 -0.02073618369958933    6    4    2    2
 -0.001638675120200981    6    4    3    1
 -0.001888682286038364    6    4    3    2
 -0.0001749303848558828    6    4    3    3
 0.004997254220778288    6    4    4    1
 -0.012772874576317    6    4    4    2
 -0.007603888325330274    6    4    4    3
 0.04902011782763829    6    4    4    4
 0.002462051454564022    6    4    5    1
 0.003301669852600369    6    4    5    2
 0.01135497915762311    6    4    5    3
 0.003986486713429996    6    4    5    4
 0.05721929290428824    6    4    5    5
 -0.001893268087683266    6    4    6    1
 0.005016280584471964    6    4    6    2
 0.0007358848002184478    6    4    6    3
 0.02371460493197625    6    4    6    4
 -0.09571863927472379    6    5    1    1
 -0.04320027157777298    6    5    2    1
 0.03273712064743849    6    5    2    2
 0.001374877656712477    6    5    3    1
 -0.0003385965594211221    6    5    3    2
 -0.001636942811358283    6    5    3    3
 0.006873287566797724    6    5    4    1
 0.01409619284257828    6    5    4    2
 0.006990861459402281    6    5    4    3
 -0.04975499352363288    6    5    4    4
 -0.005607690877420326    6    5    5    1
 -0.001847629137212119    6    5    5    2
 -0.01817682663714095    6    5    5    3
 -0.006300518931312314    6    5    5    4
 -0.09475256005378589    6    5    5    5
 0.00324275873369234    6    5    6    1
 0.005219342714271713    6    5    6    2
 -0.003051480257863901    6    5    6    3
 -0.02094533252272709    6    5    6    4
 0.03273038284001383    6    5    6    5
 0.2481683145626237    6    6    1    1
 -0.04336388730830353    6    6    2    1
 0.3807412374260874    6    6    2    2
 -1.460265178777877e-05    6    6    3    1
 -0.001841959885861597    6    6    3    2
 0.2107428244383928    6    6    3    3
 0.01038229618024466    6    6    4    1
 0.01372095932230228    6    6    4    2
 -0.00217391956198732    6    6    4    3
 0.2714174544946955    6    6    4    4
 0.007245552458515762    6    6    5    1
 0.004894808714829038    6    6    5    2
 0.002042530286995583    6    6    5    3
 -0.009719228478602125    6    6    5    4
 0.2285658773646149    6    6    5    5
 -0.003363307308118751    6    6    6    1
 0.0124198666546327    6    6    6    2
 -0.01552690992003154    6    6    6    3
 -0.00773606284920705    6    6    6    4
 0.01335158566908832    6    6    6    5
 0.2952841134982879    6    6    6    6
 0.008045519914447609    7    1    1    1
 0.004275016463923283    7    1    2    1
 -0.005550066911783115    7    1    2    2
 -0.003393157036845082    7    1    3    1
 0.0007066891447083878    7    1    3    2
 -0.004226437646909974    7    1    3    3
 0.02022637356007007    7    1    4    1
 0.01515573297559932    7    1    4    2
 -0.001324032198293359    7    1    4    3
 0.01087218328207329    7    1    4    4
 0.009347939033106921    7    1    5    1
 2.298029602595814e-06    7    1    5    2
 3.083264134795873e-06    7    1    5    3
 0.000985895433057795    7    1    5    4
 0.009744813605873847    7    1    5    5
 0.008261640298985655    7    1    6    1
 -0.006595873507182714    7    1    6    2
 -0.002347767006670169    7    1    6    3
 0.004531144434720971    7    1    6    4
 -0.004797742274709272    7    1    6    5
 -0.002583159032316976    7    1    6    6
 0.05812893621156701    7    1    7    1
 0.01611786537740931    7    2    1    1
 -0.0001543906249910812    7    2    2    1
 0.004619687870394882    7    2    2    2
 -0.0004720951935199431    7    2    3    1
 -0.004341034117096227    7    2    3    2
 0.0008468923660909289    7    2    3    3
 0.02147702245276013    7    2    4    1
 -0.02793191809157322    7    2    4    2
 -0.002578565856741634    7    2    4    3
 0.02009433717051495    7    2    4    4
 0.0002616922423736428    7    2    5    1
 0.008293641314671639    7    2    5    2
 0.00111927462356999    7    2    5    3
 0.00114010158566544    7    2    5    4
 0.01230480106703371    7    2    5    5
 -0.003021261733540247    7    2    6    1
 0.02144566253381549    7    2    6    2
 -0.002224654028321177    7    2    6    3
 0.006515937433201642    7    2    6    4
 -0.002600356736337557    7    2    6    5
 0.006319335502603596    7    2    6    6
 0.007061176756743262    7    2    7    1
 0.03597268821633742    7    2    7    2
 -0.02278655073382744    7    3    1    1
 -0.002903789763949449    7    3    2    1
 -0.01464375160262512    7    3    2    2
 -0.0004812192730394223    7    3    3    1
 -0.001035726720162702    7    3    3    2
 -0.01077976948824404    7    3    3    3
 0.0005531973602873963    7    3    4    1
 0.0003778043812439864    7    3    4    2
 0.004665802125883352    7    3    4    3
 -0.01904408897837564    7    3    4    4
 -0.002689094490291099    7    3    5    1
 -0.0006080069839459091    7    3    5    2
 -0.009902858734941469    7    3    5    3
 0.000995818633577111    7    3    5    4
 -0.02067016912158576    7    3    5    5
 -7.41581244012341e-05    7    3    6    1
 0.001534143214505827    7    3    6    2
 -0.01315234519326783    7    3    6    3
 -0.002043105377507413    7    3    6    4
 0.00420804270894258    7    3    6    5
 -0.01392911438037623    7    3    6    6
 -0.001133451912819091    7    3    7    1
 0.0001944730462407756    7    3    7    2
 0.01728842333002484    7    3    7    3
 0.06761952277348442    7    4    1    1
 0.05683821864966917    7    4    2    1
 -0.1009212238849929    7    4    2    2
 -0.0009534889469184297    7    4    3    1
 -0.001641139939073978    7    4    3    2
 0.01935351121511716    7    4    3    3
 -0.005462152292558131    7    4    4    1
 -0.01300033345676285    7    4    4    2
 -0.005653951207940469    7    4    4    3
 0.01640736809010221    7    4    4    4
 0.001060945406648343    7    4    5    1
 0.0004688718843368922    7    4    5    2
 0.01211752076640071    7    4    5    3
 0.01404624355086875    7    4    5    4
 0.06718421473146477    7    4    5    5
 -0.001009947376483833    7    4    6    1
 -0.00148183836934816    7    4    6    2
 0.01395695771875171    7    4    6    3
 0.02270141541517028    7    4    6    4
 -0.02752775571198869    7    4    6    5
 -0.03584083607155159    7    4    6    6
 0.009450971896023832    7    4    7    1
 -0.00104803223072919    7    4    7    2
 -0.001912289785911359    7    4    7    3
 0.05765751413346121    7    4    7    4
 0.03611361866717775    7    5    1    1
 6.850517684333175e-05    7    5    2    1
 0.0360677983364304    7    5    2    2
 -0.002855574761856862    7    5    3    1
 4.369554805058277e-05    7    5    3    2
 -0.01945377530993188    7    5    3    3
 0.0024432324778146    7    5    4    1
 0.0003891426110136003    7    5    4    2
 -9.547688486484391e-05    7    5    4    3
 0.03444676007107633    7    5    4    4
 -0.001954504115580788    7    5    5    1
 -0.00124327540659194    7    5    5    2
 0.00330623457281508    7    5    5    3
 0.01201537965422918    7    5    5    4
 0.02907598235711472    7    5    5    5
 0.0003447024349154319    7    5    6    1
 -0.0007372613634016109    7    5    6    2
 -0.008947274886603546    7    5    6    3
 0.0005237455736655799    7    5    6    4
 -0.00293625357981382    7    5    6    5
 0.01154554479717992    7    5    6    6
 0.004326256005999683    7    5    7    1
 0.00254827659595831    7    5    7    2
 -1.59797149359084e-06    7    5    7    3
 -0.001990183724010278    7    5    7    4
 0.02345094287852483    7    5    7    5
 0.03768709215566405    7    6    1    1
 -0.01640466064209783    7    6    2    1
 0.08710034561418857    7    6    2    2
 -0.003476480231838774    7    6    3    1
 0.0003692073239053526    7    6    3    2
 -0.03478387981469842    7    6    3    3
 0.007391731134628227    7    6    4    1
 0.007444541171255862    7    6    4    2
 -0.0003989881557231463    7    6    4    3
 0.04828387181800321    7    6    4    4
 -0.004352242705120954    7    6    5    1
 -0.001803517710859605    7    6    5    2
 0.003158021109036543    7    6    5    3
 -0.00142167436952795    7    6    5    4
 0.02160157077509442    7    6    5    5
 0.002209010211307957    7    6    6    1
 0.0008763659727386931    7    6    6    2
 -0.02430301302427111    7    6    6    3
 -0.00377983278104131    7    6    6    4
 0.002156927584323994    7    6    6    5
 0.03280347934892473    7    6    6    6
 0.001605089091893072    7    6    7    1
 0.001769043559528437    7    6    7    2
 -0.0003843760388470733    7    6    7    3
 -0.01626513706914964    7    6    7    4
 0.008369034036771351    7    6    7    5
 0.03120321539660362    7    6    7    6
 0.4152262720644954    7    7    1    1
 0.03288224825332495    7    7    2    1
 0.3155529673147608    7    7    2    2
 -0.00732088118230244    7    7    3    1
 -0.0007927337861474877    7    7    3    2
 0.1956366222661609    7    7    3    3
 0.01387307464632295    7    7    4    1
 -0.01279101658051766    7    7    4    2
 -0.01279031532194139    7    7    4    3
 0.3684697865753772    7    7    4    4
 0.006069392177306402    7    7    5    1
 0.003245715871042567    7    7    5    2
 0.02866823734464538    7    7    5    3
 0.01292207820242933    7    7    5    4
 0.3684242674879442    7    7    5    5
 -0.0009147588867918201    7    7    6    1
 0.001161019337878628    7    7    6    2
 -0.01525217684096979    7    7    6    3
 0.02700974642969132    7    7    6    4
 -0.03586916511180025    7    7    6    5
 0.2532479824412187    7    7    6    6
 0.02576316899837217    7    7    7    1
 0.02115813666625701    7    7    7    2
 -0.01684749409498572    7    7    7    3
 0.01677288718394543    7    7    7    4
 0.02408851388732667    7    7    7    5
 0.03293321302216498    7    7    7    6
 0.3441551604977441    7    7    7    7
 -0.005858591365030351    8    1    1    1
 -0.001509607388030375    8    1    2    1
 -0.001776872604415716    8    1    2    2
 -0.002389091775994828    8    1    3    1
 -0.003697495382758106    8    1    3    2
 -0.001824803926638362    8    1    3    3
 0.008712810951274597    8    1    4    1
 0.003519461074804486    8    1    4    2
 -0.0001420273170657927    8    1    4    3
 7.439111473901759e-05    8    1    4    4
 -0.009324634257523829    8    1    5    1
 -0.001482356721096569    8    1    5    2
 -0.00131709231764659    8    1    5    3
 0.002414518734438397    8    1    5    4
 -0.002757581105795597    8    1    5    5
 0.003993333939854423    8    1    6    1
 0.0111519924167948    8    1    6    2
 -0.001261693909740241    8    1    6    3
 0.001970235464113451    8    1    6    4
 0.0005961701350641517    8    1    6    5
 -6.348768707933951e-05    8    1    6    6
 0.03592920946503166    8    1    7    1
 0.01125722329141834    8    1    7    2
 -0.0003087202065718098    8    1    7    3
 0.003389491666851464    8    1    7    4
 0.001374930152217562    8    1    7    5
 0.0004875626122473804    8    1    7    6
 0.01298645958537676    8    1    7    7
 0.03074202805865395    8    1    8    1
 0.001051115783508339    8    2    1    1
 0.0008181014331758948    8    2    2    1
 -0.00461549007472162    8    2    2    2
 -0.004627807723746982    8    2    3    1
 0.01004568546033642    8    2    3    2
 -0.003604471351885878    8    2    3    3
 0.004329779361719773    8    2    4    1
 6.36257420292933e-05    8    2    4    2
 0.0004945261401512967    8    2    4    3
 0.006950213320450865    8    2    4    4
 -0.003569511044810283    8    2    5    1
 -0.00816546170395252    8    2    5    2
 0.001096517577053027    8    2    5    3
 -0.0006149722054773932    8    2    5    4
 0.0005935142975757875    8    2    5    5
 0.01371049037152839    8    2    6    1
 -0.03636862116968371    8    2    6    2
 0.001916533902621153    8    2    6    3
 -0.002964780102151592    8    2    6    4
 -0.001848510327988127    8    2    6    5
 -0.006684066500373845    8    2    6    6
 0.01240265683560817    8    2    7    1
 0.0004390921678320129    8    2    7    2
 -0.002328215558430283    8    2    7    3
 -0.00275565505132025    8    2    7    4
 0.002391269173506239    8    2    7    5
 0.001345895457311103    8    2    7    6
 0.005804395082291922    8    2    7    7
 -0.004828505329456759    8    2    8    1
 0.05049034204174693    8    2    8    2
 0.00066853149593934    8    3    1    1
 -0.01031795883232035    8    3    2    1
 0.03206212533102484    8    3    2    2
 0.000819018054744644    8    3    3    1
 0.0004156011521024714    8    3    3    2
 0.01449512854682981    8    3    3    3
 9.577766498409152e-05    8    3    4    1
 0.002541382816295877    8    3    4    2
 -0.002578047843467186    8    3    4    3
 0.0081385560580671    8    3    4    4
 0.0003529696906714198    8    3    5    1
 0.0003446052344328558    8    3    5    2
 0.004311793712451904    8    3    5    3
 -0.001060111568366021    8    3    5    4
 -0.001090770739953949    8    3    5    5
 6.847348812281375e-05    8    3    6    1
 0.001142052364490141    8    3    6    2
 0.01399635099902864    8    3    6    3
 -0.002731506972229947    8    3    6    4
 0.003927251178088    8    3    6    5
 0.02223582625882012    8    3    6    6
 -0.003741665241146439    8    3    7    1
 -0.0009779348515797438    8    3    7    2
 -0.01610908265219831    8    3    7    3
 -0.00840903647444829    8    3    7    4
 0.003222517431449366    8    3    7    5
 -0.001093329049003391    8    3    7    6
 0.006229521758690024    8    3    7    7
 -0.002023474283063326    8    3    8    1
 0.001015075000010063    8    3    8    2
 0.02139340462372267    8    3    8    3
 0.03247335837028322    8    4    1    1
 0.01095418218575971    8    4    2    1
 0.0009187506923683351    8    4    2    2
 -0.001290127006186901    8    4    3    1
 0.001121217341275493    8    4    3    2
 -0.004584893761526301    8    4    3    3
 -9.160787413111155e-05    8    4    4    1
 0.001087529011747397    8    4    4    2
 -0.001963039256847919    8    4    4    3
 0.02167163820427871    8    4    4    4
 0.001823520054085547    8    4    5    1
 -0.00098973965707199    8    4    5    2
 0.005494067979816562    8    4    5    3
 0.001936210842087048    8    4    5    4
 0.02738468919222278    8    4    5    5
 0.001206836462101097    8    4    6    1
 -0.005754391961874271    8    4    6    2
 -0.00188626544664414    8    4    6    3
 0.004104298881194289    8    4    6    4
 -0.007759789641625303    8    4    6    5
 0.001709800268492645    8    4    6    6
 0.004374620849764395    8    4    7    1
 -0.002794856414712518    8    4    7    2
 -0.00351385891353012    8    4    7    3
 0.01350150737123162    8    4    7    4
 0.003564572210091206    8    4    7    5
 0.006738780795179241    8    4    7    6
 0.01826006751975641    8    4    7    7
 0.0002333682819774579    8    4    8    1
 0.003016937381022593    8    4    8    2
 -0.0002657918514248061    8    4    8    3
 0.01121007779822916    8    4    8    4
 -0.04027356667639986    8    5    1    1
 -0.003884323404732062    8    5    2    1
 -0.0298719097313507    8    5    2    2
 0.001041382081186603    8    5    3    1
 1.497781294777798e-05    8    5    3    2
 0.009115001193676468    8    5    3    3
 0.0008682810376480056    8    5    4    1
 0.0001366170519340353    8    5    4    2
 0.00287638405169233    8    5    4    3
 -0.03048475128151464    8    5    4    4
 -0.0002737240574724104    8    5    5    1
 -0.0001660246240054913    8    5    5    2
 -0.007644640725113699    8    5    5    3
 0.0007453275553329722    8    5    5    4
 -0.03489826185692704    8    5    5    5
 0.0006434444993523601    8    5    6    1
 -3.695832311589237e-05    8    5    6    2
 0.006435552357093081    8    5    6    3
 -0.004817870922217825    8    5    6    4
 0.008090443087166577    8    5    6    5
 -0.01449120305548932    8    5    6    6
 -6.966612585356538e-05    8    5    7    1
 -6.714762256798844e-05    8    5    7    2
 0.005269491392907034    8    5    7    3
 0.00108843582885335    8    5    7    4
 0.00397673383954791    8    5    7    5
 -0.01086272300821723    8    5    7    6
 -0.01941553785518568    8    5    7    7
 0.0006962979284656644    8    5    8    1
 0.0006755840767736299    8    5    8    2
 -0.002579952689528761    8    5    8    3
 -0.003224626343523339    8    5    8    4
 0.01271830526094614    8    5    8    5
 0.003075905449644754    8    6    1    1
 0.04601220875433697    8    6    2    1
 -0.136043315808539    8    6    2    2
 0.002158400651094199    8    6    3    1
 0.0009310815842580331    8    6    3    2
 0.04628841176674317    8    6    3    3
 -0.008066332594194909    8    6    4    1
 -0.01603866066685895    8    6    4    2
 -0.001935051194301833    8    6    4    3
 -0.03072842199507495    8    6    4    4
 0.003974124468472989    8    6    5    1
 0.0006667651151082032    8    6    5    2
 0.004167020134913021    8    6    5    3
 0.002830512062255955    8    6    5    4
 0.01571218474805986    8    6    5    5
 -0.000603472567822466    8    6    6    1
 -0.008470222980538171    8    6    6    2
 0.03366046515752813    8    6    6    3
 0.01067536147970725    8    6    6    4
 -0.01805705336840312    8    6    6    5
 -0.05133041657256888    8    6    6    6
 0.001721540678129091    8    6    7    1
 -0.001137957681258966    8    6    7    2
 -0.004418169389790619    8    6    7    3
 0.03878573214508162    8    6    7    4
 -0.01404877949521574    8    6    7    5
 -0.03184095099004747    8    6    7    6
 -0.01736016168448863    8    6    7    7
 -0.001370825398040402    8    6    8    1
 0.005327493706946829    8    6    8    2
 -0.003564240473876381    8    6    8    3
 0.001807208260146601    8    6    8    4
 0.007344762766672302    8    6    8    5
 0.06236421280227532    8    6    8    6
 0.1584134499965226    8    7    1    1
 0.043135117326654    8    7    2    1
 0.02835444235686431    8    7    2    2
 -0.006835709121832225    8    7    3    1
 -0.0005064698623622492    8    7    3    2
 -0.02216499218607862    8    7    3    3
 0.003830344368939716    8    7    4    1
 -0.01433262731261661    8    7    4    2
 -0.0098011596939508    8    7    4    3
 0.109587500407149    8    7    4    4
 -0.003210962052907565    8    7    5    1
 -0.0007032813109190683    8    7    5    2
 0.02298650335561454    8    7    5    3
 0.01436633172230765    8    7    5    4
 0.1275476917042749    8    7    5    5
 0.001358943606541791    8    7    6    1
 -0.004129500628980437    8    7    6    2
 -0.01441191795760286    8    7    6    3
 0.02765001859190737    8    7    6    4
 -0.03459999944847151    8    7    6    5
 0.009026526593794942    8    7    6    6
 0.01965952744696333    8    7    7    1
 0.01157665710902644    8    7    7    2
 -0.007828314446903534    8    7    7    3
 0.02655322768649408    8    7    7    4
 0.01497972448142505    8    7    7    5
 0.01479945406410794    8    7    7    6
 0.08638318069400315    8    7    7    7
 0.007927261193870223    8    7    8    1
 0.00991609938997059    8    7    8    2
 -0.00129051271544412    8    7    8    3
 0.01189774413557601    8    7    8    4
 -0.01430381788944737    8    7    8    5
 0.002821280092963009    8    7    8    6
 0.07729595035750185    8    7    8    7
 0.3005435701467012    8    8    1    1
 -0.01779355588976358    8    8    2    1
 0.3557532214536737    8    8    2    2
 -0.003730481173717481    8    8    3    1
 -0.00122001205294947    8    8    3    2
 0.1895356568888037    8    8    3    3
 0.0113322106658657    8    8    4    1
 0.004220595745677748    8    8    4    2
 -0.005628967547590025    8    8    4    3
 0.2950845599408726    8    8    4    4
 0.00316057845346606    8    8    5    1
 0.003511472787536214    8    8    5    2
 0.00994274135137845    8    8    5    3
 0.0005789317651950061    8    8    5    4
 0.2670448933483973    8    8    5    5
 -0.002174391442502465    8    8    6    1
 0.01066834506373881    8    8    6    2
 -0.01964674550964227    8    8    6    3
 0.007736372462802652    8    8    6    4
 -0.004786369369478605    8    8    6    5
 0.2674544731019236    8    8    6    6
 0.006845554632990994    8    8    7    1
 0.01325229153685766    8    8    7    2
 -0.007660323031151027    8    8    7    3
 -0.0171817994163661    8    8    7    4
 0.01252521024228667    8    8    7    5
 0.03189820270494753    8    8    7    6
 0.2826816357785067    8    8    7    7
 0.004149473299692829    8    8    8    1
 -0.00152111509995146    8    8    8    2
 0.008933456488876772    8    8    8    3
 0.004589289571557252    8    8    8    4
 -0.01563543620890545    8    8    8    5
 -0.04756661922350913    8    8    8    6
 0.03191975792438882    8    8    8    7
 0.2917625600098489    8    8    8    8
 0.02192214671498665    9    1    1    1
 0.004961413993619156    9    1    2    1
 0.0009456985383531247    9    1    2    2
 -0.001923455210411063    9    1    3    1
 -0.00105517827497967    9    1    3    2
 0.0001672132647165276    9    1    3    3
 0.02428955661331212    9    1    4    1
 0.01202495648813415    9    1    4    2
 -0.001525477487357751    9    1    4    3
 0.01201974363375534    9    1    4    4
 -0.0006361883549889762    9    1    5    1
 -0.001529272201497499    9    1    5    2
 0.0008707791039623583    9    1    5    3
 0.002476623323724073    9    1    5    4
 0.006837100084876304    9    1    5    5
 0.005767208604949418    9    1    6    1
 0.001335072491337641    9    1    6    2
 -0.0008094983356249345    9    1    6    3
 0.001901798771962295    9    1    6    4
 -0.001339269729956976    9    1    6    5
 0.0009845479356794503    9    1    6    6
 -0.03147575669846364    9    1    7    1
 -0.0172561358164288    9    1    7    2
 0.0008853715437807493    9    1    7    3
 0.00575929312479274    9    1    7    4
 -0.001617486608198759    9    1    7    5
 0.001369858860753658    9    1    7    6
 -0.009113324044311954    9    1    7    7
 -0.02518540682447307    9    1    8    1
 -0.01824513852682792    9    1    8    2
 0.0006029484009868644    9    1    8    3
 0.00225612938289966    9    1    8    4
 -0.002027889023045244    9    1    8    5
 0.0006467915792508161    9    1    8    6
 -0.007127472735777964    9    1    8    7
 -0.002931118967992055    9    1    8    8
 0.05655771518304856    9    1    9    1
 0.01516458561709975    9    2    1    1
 -0.003463190934330943    9    2    2    1
 0.01359993395362979    9    2    2    2
 -0.001856328149051392    9    2    3    1
 0.001028291829456888    9    2    3    2
 -0.0006104512898956955    9    2    3    3
 0.02023941958046439    9    2    4    1
 -0.02372255400521108    9    2    4    2