&FCI NORB= 12,
NELEC= 16,
MS2= 0,
ORBSYM=1,1,1,1,1,1,1,1,1,1,1,1,
ISYM= 1,
&END
        0.71872330126704875308       1       1       1       1
       -0.04796259760227738339       1       1       2       1
        0.19127376461643288974       1       1       2       2
        0.00000011603432343091       1       1       3       1
       -0.00000072968181290126       1       1       3       2
        0.64225776882228835518       1       1       3       3
        0.01158743268149333046       1       1       4       1
       -0.02897416115150605945       1       1       4       2
       -0.00000630382889776741       1       1       4       3
        0.23243786773320421202       1       1       4       4
       -0.00249396208998122100       1       1       5       1
        0.00359339251984951884       1       1       5       2
       -0.00000132967517152936       1       1       5       3
       -0.10743410386737760331       1       1       5       4
        0.60557661079049873720       1       1       5       5
       -0.00132230937581340798       1       1       6       1
        0.00886829149291489330       1       1       6       2
       -0.00000009208334193495       1       1       6       3
       -0.04167625276595972317       1       1       6       4
       -0.10075875969640009366       1       1       6       5
        0.50239735330833168447       1       1       6       6
        0.00702981417297343907       1       1       7       1
       -0.00745212286374901962       1       1       7       2
       -0.00000147579008228304       1       1       7       3
       -0.06454777294370245277       1       1       7       4
        0.08579803268233092417       1       1       7       5
        0.25389141171184498313       1       1       7       6
        0.44683654198467898100       1       1       7       7
        0.00000016622823894391       1       1       8       1
       -0.00000088235402280834       1       1       8       2
       -0.00256416344422276312       1       1       8       3
       -0.00000037631138505436       1       1       8       4
        0.00000106532906213107       1       1       8       5
        0.00000195264397201166       1       1       8       6
        0.00000207811965929077       1       1       8       7
        0.17891891701613940602       1       1       8       8
        0.13503898594966640134       1       1       9       1
       -0.01577660013959594071       1       1       9       2
        0.00000064501545042010       1       1       9       3
        0.03359784243286378230       1       1       9       4
       -0.07065853364324559127       1       1       9       5
        0.02272145290354242106       1       1       9       6
        0.00600837656055301043       1       1       9       7
        0.00000016942112795007       1       1       9       8
        0.55656522463439206394       1       1       9       9
        0.03462685036631744928       1       1      10       1
       -0.00161712310851272099       1       1      10       2
       -0.00000078238601087469       1       1      10       3
       -0.00609305741820935411       1       1      10       4
       -0.05400424572582297744       1       1      10       5
       -0.00704693929298259338       1       1      10       6
       -0.03334023166051566095       1       1      10       7
       -0.00000011641886240409       1       1      10       8
        0.11765860872089649314       1       1      10       9
        0.23504672039628729530       1       1      10      10
       -0.00000022938272110364       1       1      11       1
       -0.00000014619280773188       1       1      11       2
        0.13931799699614569321       1       1      11       3
       -0.00000214598853042619       1       1      11       4
        0.00000015956551950407       1       1      11       5
       -0.00000001380114461038       1       1      11       6
        0.00000014194731617705       1       1      11       7
       -0.00106395243581772496       1       1      11       8
        0.00000054837666763584       1       1      11       9
       -0.00000402790946257099       1       1      11      10
        0.61881175506753571813       1       1      11      11
        0.01041304429779098956       1       1      12       1
        0.00743255186338348268       1       1      12       2
        0.00000198519425274565       1       1      12       3
       -0.00332667531278865508       1       1      12       4
       -0.04013260128886528971       1       1      12       5
       -0.00249589620618440294       1       1      12       6
       -0.04963872268309300201       1       1      12       7
       -0.00000031071793223013       1       1      12       8
        0.04850085263115588158       1       1      12       9
        0.06320362061772734352       1       1      12      10
        0.00000493357374107173       1       1      12      11
        0.22955592437214469848       1       1      12      12
       -0.04796259760227738339       2       1       1       1
        0.00846970775001706748       2       1       2       1
        0.04589409832842782783       2       1       2       2
       -0.00000022375674029850       2       1       3       1
        0.00000009644067651921       2       1       3       2
       -0.04203087423697590003       2       1       3       3
       -0.00309656244803198887       2       1       4       1
        0.00100395312658679804       2       1       4       2
        0.00000114816064394809       2       1       4       3
        0.03313227938699189051       2       1       4       4
        0.00317681492434340913       2       1       5       1
       -0.00187640302430368191       2       1       5       2
        0.00000022744440481383       2       1       5       3
        0.01793487804263974028       2       1       5       4
       -0.03024300986538893884       2       1       5       5
        0.00181661889299123899       2       1       6       1
       -0.00088646943301816004       2       1       6       2
       -0.00000002878210777526       2       1       6       3
        0.00559503202888931000       2       1       6       4
        0.01764556638197768007       2       1       6       5
       -0.01080714012779001969       2       1       6       6
        0.00147581263419369491       2       1       7       1
       -0.00165897740594575299       2       1       7       2
        0.00000025420012271462       2       1       7       3
        0.01191821434727999979       2       1       7       4
       -0.01317836116226677942       2       1       7       5
       -0.04103490125170743130       2       1       7       6
        0.00047956596152896273       2       1       7       7
       -0.00000000734993837634       2       1       8       1
        0.00000002546038580287       2       1       8       2
        0.00047187234144596419       2       1       8       3
        0.00000009076003425899       2       1       8       4
       -0.00000017223183806316       2       1       8       5
       -0.00000031070196624182       2       1       8       6
       -0.00000036379811470881       2       1       8       7
        0.04843373764159920186       2       1       8       8
       -0.01212977063014102942       2       1       9       1
        0.00538872727908986521       2       1       9       2
        0.00000004513999929043       2       1       9       3
       -0.00370025320481723709       2       1       9       4
        0.00489066046615905473       2       1       9       5
       -0.00011101547202604049       2       1       9       6
       -0.00326080553502919313       2       1       9       7
       -0.00000006365645691385       2       1       9       8
       -0.03091197640659348878       2       1       9       9
       -0.00394002652985665867       2       1      10       1
       -0.01046386652918502962       2       1      10       2
       -0.00000000157483177112       2       1      10       3
       -0.00310514277009750700       2       1      10       4
        0.00319938758145653802       2       1      10       5
       -0.00296226373602707016       2       1      10       6
        0.00897406756039821445       2       1      10       7
        0.00000003400902693273       2       1      10       8
       -0.02246380853511666109       2       1      10       9
        0.02891276314602378092       2       1      10      10
       -0.00000002567224432027       2       1      11       1
       -0.00000006699078538714       2       1      11       2
       -0.01037995454878301062       2       1      11       3
        0.00000005223210901265       2       1      11       4
       -0.00000018069951127108       2       1      11       5
       -0.00000002820175032167       2       1      11       6
       -0.00000003332391765948       2       1      11       7
        0.00013244077792331011       2       1      11       8
       -0.00000021327893941735       2       1      11       9
        0.00000065524550405053       2       1      11      10
       -0.04013857838602793299       2       1      11      11
       -0.00097877341895518462       2       1      12       1
       -0.00215190845102050709       2       1      12       2
       -0.00000004549118115382       2       1      12       3
        0.00916706436416024444       2       1      12       4
        0.00763821966599726766       2       1      12       5
        0.00244364901308896394       2       1      12       6
        0.00722797093008973462       2       1      12       7
        0.00000004709475333706       2       1      12       8
       -0.01107358455288940009       2       1      12       9
       -0.00628722606153172842       2       1      12      10
       -0.00000087425566338343       2       1      12      11
        0.03402130081533055739       2       1      12      12
        0.19127376461643288974       2       2       1       1
        0.04589409832842782783       2       2       2       1
        0.71861617131220245636       2       2       2       2
       -0.00000125864857971436       2       2       3       1
        0.00000065741899854264       2       2       3       2
        0.18013949894493710979       2       2       3       3
       -0.01246726145201683920       2       2       4       1
        0.00517220966202009119       2       2       4       2
        0.00000638996977489430       2       2       4       3
        0.60441264422416429714       2       2       4       4
        0.01434594100333736084       2       2       5       1
       -0.01390938655533731014       2       2       5       2
        0.00000131200995125140       2       2       5       3
        0.10029898132609089967       2       2       5       4
        0.26169670034400699388       2       2       5       5
        0.00905217218275490565       2       2       6       1
       -0.00512868603563141484       2       2       6       2
       -0.00000024044266499341       2       2       6       3
        0.02739096210026810072       2       2       6       4
        0.09699432995911945465       2       2       6       5
        0.39031141584608469719       2       2       6       6
        0.00900165089564502162       2       2       7       1
       -0.01546094840584228032       2       2       7       2
        0.00000140056217440540       2       2       7       3
        0.06726116015204780529       2       2       7       4
       -0.07161772505645595810       2       2       7       5
       -0.21314734819358138740       2       2       7       6
        0.45909814310294477790       2       2       7       7
       -0.00000000648740977586       2       2       8       1
       -0.00000010735447980827       2       2       8       2
        0.00273578051359708212       2       2       8       3
        0.00000058434295506027       2       2       8       4
       -0.00000101768356519001       2       2       8       5
       -0.00000165695269678261       2       2       8       6
       -0.00000207114732935985       2       2       8       7
        0.74307438919230694996       2       2       8       8
        0.00798152027122406467       2       2       9       1
        0.04725396692500998669       2       2       9       2
        0.00000073439096830799       2       2       9       3
       -0.01406236850321728078       2       2       9       4
       -0.01424692829589922077       2       2       9       5
        0.02082833533935648032       2       2       9       6
       -0.03779090493650776039       2       2       9       7
       -0.00000055321793934260       2       2       9       8
        0.22202747118439589147       2       2       9       9
       -0.00704782125384801564       2       2      10       1
       -0.13003678826581699379       2       2      10       2
       -0.00000064820373577630       2       2      10       3
       -0.03071824752161994923       2       2      10       4
       -0.01816123851850597049       2       2      10       5
       -0.04680140731744515670       2       2      10       6
        0.07230494324390743244       2       2      10       7
        0.00000015967255570975       2       2      10       8
       -0.12728956441644900810       2       2      10       9
        0.56727653126382160398       2       2      10      10
       -0.00000019805230150763       2       2      11       1
       -0.00000100527860890496       2       2      11       2
        0.01771534231284117855       2       2      11       3
       -0.00000173760598743473       2       2      11       4
       -0.00000132425274389687       2       2      11       5
       -0.00000035180406725885       2       2      11       6
       -0.00000014662811579933       2       2      11       7
        0.00048909644302539746       2       2      11       8
       -0.00000136066385311353       2       2      11       9
        0.00000368583272968122       2       2      11      10
        0.17591125941173368918       2       2      11      11
        0.00106864473796903603       2       2      12       1
       -0.01854676590136063868       2       2      12       2
        0.00000176577777759269       2       2      12       3
        0.12030672091677370450       2       2      12       4
        0.04488743663241651777       2       2      12       5
        0.01413036353105200961       2       2      12       6
        0.04340183691186758758       2       2      12       7
        0.00000023277299507421       2       2      12       8
       -0.06438174085525946722       2       2      12       9
       -0.02834157915564948158       2       2      12      10
       -0.00000488887038452202       2       2      12      11
        0.60584085390172937036       2       2      12      12
        0.00000011603432343091       3       1       1       1
       -0.00000022375674029850       3       1       2       1
       -0.00000125864857971436       3       1       2       2
        0.14328163388521999999       3       1       3       1
       -0.01343575954014385003       3       1       3       2
        0.00000036474865029029       3       1       3       3
       -0.00000198591493479148       3       1       4       1
        0.00000058940478699023       3       1       4       2
        0.00829768166108026811       3       1       4       3
       -0.00000151480507350199       3       1       4       4
       -0.00000035105059275481       3       1       5       1
        0.00000012855579842937       3       1       5       2
       -0.01827065485462648145       3       1       5       3
        0.00000013210669392444       3       1       5       4
       -0.00000031967690553719       3       1       5       5
        0.00000001767690073658       3       1       6       1
        0.00000002335014289643       3       1       6       2
        0.00292240985158431993       3       1       6       3
       -0.00000000624459331510       3       1       6       4
       -0.00000031570131017386       3       1       6       5
       -0.00000051509316424669       3       1       6       6
       -0.00000045620881287413       3       1       7       1
        0.00000007379778413721       3       1       7       2
       -0.00216135223651554680       3       1       7       3
       -0.00000016136319638078       3       1       7       4
        0.00000016875848310102       3       1       7       5
        0.00000050835991903184       3       1       7       6
       -0.00000065838130355877       3       1       7       7
       -0.00055493898388134309       3       1       8       1
        0.00290526694533737402       3       1       8       2
       -0.00000003510083370758       3       1       8       3
       -0.00065993542432268263       3       1       8       4
       -0.00025092915990193582       3       1       8       5
       -0.00030900189949329738       3       1       8       6
        0.00014136736911095349       3       1       8       7
       -0.00000130889928099884       3       1       8       8
        0.00000014754895755198       3       1       9       1
       -0.00000000429206795419       3       1       9       2
       -0.03598579403665577020       3       1       9       3
        0.00000042704103269254       3       1       9       4
        0.00000030254384131940       3       1       9       5
       -0.00000016014240109940       3       1       9       6
        0.00000009844317351571       3       1       9       7
        0.00023136687749638170       3       1       9       8
        0.00000060791144684130       3       1       9       9
       -0.00000011579997555083       3       1      10       1
        0.00000002941560149777       3       1      10       2
       -0.01552208324773226948       3       1      10       3
        0.00000063317729854726       3       1      10       4
       -0.00000060460875253424       3       1      10       5
        0.00000011124800649686       3       1      10       6
       -0.00000023590910317654       3       1      10       7
       -0.00019651919240850201       3       1      10       8
       -0.00000027867836663135       3       1      10       9
       -0.00000136186676710781       3       1      10      10
        0.04072439988872268712       3       1      11       1
       -0.00311845583997526904       3       1      11       2
       -0.00000025783619719719       3       1      11       3
       -0.01474630312232048067       3       1      11       4
        0.07001235222141326264       3       1      11       5
       -0.01828079746283058082       3       1      11       6
        0.01440954500049342925       3       1      11       7
        0.00000022607865861589       3       1      11       8
        0.09501801451637079121       3       1      11       9
        0.02636615363554915131       3       1      11      10
       -0.00000025455337943070       3       1      11      11
        0.00000067754083180816       3       1      12       1
       -0.00000002680579716866       3       1      12       2
       -0.01060593951730407977       3       1      12       3
        0.00000005703752494401       3       1      12       4
        0.00000056528778413062       3       1      12       5
       -0.00000046252844747070       3       1      12       6
        0.00000019011702258711       3       1      12       7
        0.00003574499412857321       3       1      12       8
        0.00000142316082061850       3       1      12       9
        0.00000000435821540922       3       1      12      10
        0.00978252077753160101       3       1      12      11
       -0.00000103259325143559       3       1      12      12
       -0.00000072968181290126       3       2       1       1
        0.00000009644067651921       3       2       2       1
        0.00000065741899854264       3       2       2       2
       -0.01343575954014385003       3       2       3       1
        0.00127781534491583099       3       2       3       2
       -0.00000071434775029272       3       2       3       3
        0.00000039554509417616       3       2       4       1
        0.00000194847890909008       3       2       4       2
       -0.00094142211973047610       3       2       4       3
        0.00000041124732848437       3       2       4       4
       -0.00000001538282908182       3       2       5       1
        0.00000041552531411563       3       2       5       2
        0.00216252007400847017       3       2       5       3
        0.00000033885347137952       3       2       5       4
       -0.00000052856882514548       3       2       5       5
       -0.00000006118923110413       3       2       6       1
        0.00000001719812928321       3       2       6       2
       -0.00016502821169923031       3       2       6       3
        0.00000028868995292407       3       2       6       4
        0.00000029221569872151       3       2       6       5
       -0.00000009980406937265       3       2       6       6
       -0.00000000097888373008       3       2       7       1
        0.00000043077533907211       3       2       7       2
        0.00047936854994045888       3       2       7       3
       -0.00000002245125466251       3       2       7       4
       -0.00000032157792001042       3       2       7       5
       -0.00000070388231910765       3       2       7       6
        0.00000004647309171692       3       2       7       7
        0.00011776749760154300       3       2       8       1
        0.00051451929454394280       3       2       8       2
        0.00000001186048898007       3       2       8       3
        0.00002235978051341502       3       2       8       4
       -0.00007618787681924554       3       2       8       5
       -0.00012468915771418309       3       2       8       6
        0.00010982393980287470       3       2       8       7
        0.00000082083524142519       3       2       8       8
       -0.00000006661319133853       3       2       9       1
       -0.00000001526717843104       3       2       9       2
        0.00350466467242738916       3       2       9       3
       -0.00000030281747317929       3       2       9       4
        0.00000004104985596398       3       2       9       5
        0.00000008672041947289       3       2       9       6
       -0.00000015430451441001       3       2       9       7
        0.00007182621492052456       3       2       9       8
       -0.00000063575326003477       3       2       9       9
       -0.00000004447507840044       3       2      10       1
       -0.00000028326074298936       3       2      10       2
        0.00147225552329823895       3       2      10       3
        0.00000044934565915437       3       2      10       4
        0.00000021559399168261       3       2      10       5
        0.00000004728939822174       3       2      10       6
        0.00000005812501059329       3       2      10       7
       -0.00024638236918112752       3       2      10       8
       -0.00000017073050650866       3       2      10       9
        0.00000082325787825917       3       2      10      10
       -0.00347528725752407203       3       2      11       1
        0.00026487495858844670       3       2      11       2
       -0.00000011293182967204       3       2      11       3
        0.00132559190481184403       3       2      11       4
       -0.00641664639912314233       3       2      11       5
        0.00183060252430136705       3       2      11       6
       -0.00117787894400776891       3       2      11       7
       -0.00000001873865777362       3       2      11       8
       -0.00922908264735293124       3       2      11       9
       -0.00261808382593262980       3       2      11      10
       -0.00000062136918804225       3       2      11      11
       -0.00000004855318184998       3       2      12       1
        0.00000047872881315310       3       2      12       2
        0.00098892812460567130       3       2      12       3
        0.00000043876679212257       3       2      12       4
       -0.00000028846476622866       3       2      12       5
       -0.00000066187003474256       3       2      12       6
        0.00000080419808245850       3       2      12       7
       -0.00004769461813635760       3       2      12       8
        0.00000022444630014149       3       2      12       9
       -0.00000140064774210180       3       2      12      10
       -0.00101813684194846103       3       2      12      11
       -0.00000000237332639023       3       2      12      12
        0.64225776882228835518       3       3       1       1
       -0.04203087423697590003       3       3       2       1
        0.18013949894493710979       3       3       2       2
        0.00000036474865029029       3       3       3       1
       -0.00000071434775029272       3       3       3       2
        0.63489106008747508980       3       3       3       3
        0.01091132166007914052       3       3       4       1
       -0.02627668187217683041       3       3       4       2
       -0.00000635896422188260       3       3       4       3
        0.21575886728041870910       3       3       4       4
       -0.00593015138253545626       3       3       5       1
        0.00336591305165663502       3       3       5       2
       -0.00000141835668035321       3       3       5       3
       -0.09338913037922896843       3       3       5       4
        0.54044204591329392251       3       3       5       5
       -0.00144420896529086199       3       3       6       1
        0.00770915684358183285       3       3       6       2
        0.00000001233258983390       3       3       6       3
       -0.03352130312145761709       3       3       6       4
       -0.08832044282038131744       3       3       6       5
        0.43533780015270051589       3       3       6       6
        0.00388728038995010509       3       3       7       1
       -0.00667149841924915329       3       3       7       2
       -0.00000146696981642410       3       3       7       3
       -0.05322536715886624914       3       3       7       4
        0.07412449931721645791       3       3       7       5
        0.20627855583260990002       3       3       7       6
        0.38864315048106179429       3       3       7       7
        0.00000008967109708607       3       3       8       1
       -0.00000089744738238431       3       3       8       2
       -0.00255254526767625814       3       3       8       3
       -0.00000027748102751233       3       3       8       4
        0.00000095788837140185       3       3       8       5
        0.00000160238161301432       3       3       8       6
        0.00000169277309618944       3       3       8       7
        0.16921928489226578662       3       3       8       8
        0.07437906540974952019       3       3       9       1
       -0.00965227152377453462       3       3       9       2
        0.00000016458019723789       3       3       9       3
        0.02078377584989090851       3       3       9       4
       -0.02789227591316238014       3       3       9       5
        0.01048257178286881967       3       3       9       6
        0.01047270749960873062       3       3       9       7
        0.00000021556769814175       3       3       9       8
        0.52449241322837869550       3       3       9       9
        0.01564227263859710101       3       3      10       1
        0.00075142476912181322       3       3      10       2
       -0.00000047661770695775       3       3      10       3
       -0.00955353009886440729       3       3      10       4
       -0.03494074781670020169       3       3      10       5
       -0.00730265906250367365       3       3      10       6
       -0.02586616323601780010       3       3      10       7
       -0.00000005331385391747       3       3      10       8
        0.11024559175805880018       3       3      10       9
        0.22056120050428149049       3       3      10      10
       -0.00000024957239821890       3       3      11       1
       -0.00000011068997573187       3       3      11       2
        0.09257513508274618774       3       3      11       3
       -0.00000139083693807395       3       3      11       4
        0.00000013087041896703       3       3      11       5
       -0.00000012746523566070       3       3      11       6
        0.00000012728614662196       3       3      11       7
       -0.00080722189982130623       3       3      11       8
        0.00000093822071668692       3       3      11       9
       -0.00000393977221857522       3       3      11      10
        0.61055719549140419211       3       3      11      11
        0.00154099183941360700       3       3      12       1
        0.00752278669091064472       3       3      12       2
        0.00000142298934556907       3       3      12       3
       -0.00604571679729739523       3       3      12       4
       -0.02807027754985123857       3       3      12       5
       -0.00125798569659184203       3       3      12       6
       -0.04074785612185542749       3       3      12       7
       -0.00000023339568806263       3       3      12       8
        0.04548294699580725936       3       3      12       9
        0.05688055246381310687       3       3      12      10
        0.00000495639911533667       3       3      12      11
        0.21432755494385841155       3       3      12      12
        0.01158743268149333046       4       1       1       1
       -0.00309656244803198887       4       1       2       1
       -0.01246726145201683920       4       1       2       2
       -0.00000198591493479148       4       1       3       1
        0.00000039554509417616       4       1       3       2
        0.01091132166007914052       4       1       3       3