 &FCI NORB=  24,NELEC=24,MS2=0,
  ORBSYM=1,1,1,1,1,1,1,1,1,1,1,1,1,1,1,1,1,1,1,1,1,1,1,1,
  ISYM=1,
 &END
 0.5025252161961811    1    1    1    1
 0.09987739331464308    2    1    1    1
 0.2156238730164223    2    1    2    1
 0.4036486504732065    2    2    1    1
 -0.1174275868545852    2    2    2    1
 0.524635667744764    2    2    2    2
 -0.01748806931951359    3    1    1    1
 -0.007138076779186493    3    1    2    1
 -0.01022819117287533    3    1    2    2
 0.002111450018991273    3    1    3    1
 -0.007358535589395561    3    2    1    1
 -0.007476822120521182    3    2    2    1
 0.0001766843918466561    3    2    2    2
 0.0009890614291681219    3    2    3    1
 0.0007484897264832674    3    2    3    2
 0.1206897694006643    3    3    1    1
 -0.01919570257914851    3    3    2    1
 0.1399240395100601    3    3    2    2
 0.01118226823748385    3    3    3    1
 0.003989900050710073    3    3    3    2
 0.3750370186568749    3    3    3    3
 0.003240409926637234    4    1    1    1
 0.0008629769300129128    4    1    2    1
 0.0007889161574449216    4    1    2    2
 -0.002686611463406517    4    1    3    1
 -0.001791547457819903    4    1    3    2
 0.001571344463572135    4    1    3    3
 0.02815622625240516    4    1    4    1
 0.00163710053567792    4    2    1    1
 -0.005523226447326784    4    2    2    1
 0.006743777123141236    4    2    2    2
 -0.001741532351937836    4    2    3    1
 -0.0007926225981669672    4    2    3    2
 -0.0005130788781528745    4    2    3    3
 0.01662032260578953    4    2    4    1
 0.0112158923263538    4    2    4    2
 -0.001050403166597538    4    3    1    1
 -0.009738616926396673    4    3    2    1
 0.008602051753832007    4    3    2    2
 0.001782459152724425    4    3    3    1
 0.0004330766396387389    4    3    3    2
 0.03810057784750396    4    3    3    3
 0.0047109694197314    4    3    4    1
 0.001982291673355858    4    3    4    2
 0.06181881428635076    4    3    4    3
 0.2302570857568641    4    4    1    1
 0.04587575480540551    4    4    2    1
 0.1841406573585941    4    4    2    2
 0.00096639121726058    4    4    3    1
 -0.0005060520059980284    4    4    3    2
 0.241906853362437    4    4    3    3
 0.005720027597643032    4    4    4    1
 0.001504695763040249    4    4    4    2
 0.01080195670389878    4    4    4    3
 0.2419878432440602    4    4    4    4
 0.005278804533579036    5    1    1    1
 -0.005813383435773672    5    1    2    1
 0.006185305904822943    5    1    2    2
 -0.0005259478796106674    5    1    3    1
 4.826143861444106e-05    5    1    3    2
 0.00104228243784854    5    1    3    3
 0.004040321819519497    5    1    4    1
 -0.003202845031190279    5    1    4    2
 0.0008534097490219451    5    1    4    3
 0.001439516586022246    5    1    4    4
 0.04646399836639586    5    1    5    1
 -0.02169271781507417    5    2    1    1
 -0.01915153634119372    5    2    2    1
 0.001983624678113892    5    2    2    2
 0.001102109334115444    5    2    3    1
 0.0006292254077201806    5    2    3    2
 0.00129009896707692    5    2    3    3
 -0.004834766878112432    5    2    4    1
 0.006400196309644518    5    2    4    2
 -0.001016016108673456    5    2    4    3
 -0.008122211054444934    5    2    4    4
 -0.05611187857403987    5    2    5    1
 0.09791076778822719    5    2    5    2
 -0.002570846504375545    5    3    1    1
 0.000220567725010105    5    3    2    1
 -0.002558628939592412    5    3    2    2
 7.152220199208355e-06    5    3    3    1
 -8.152124227017288e-07    5    3    3    2
 -0.001773216243478179    5    3    3    3
 -0.0007038601300685003    5    3    4    1
 -0.0001751173196064765    5    3    4    2
 -0.006264286966738434    5    3    4    3
 -0.001189881341646523    5    3    4    4
 -0.001760404388482538    5    3    5    1
 0.0017718484307917    5    3    5    2
 0.0008054580888722425    5    3    5    3
 0.01654685864096644    5    4    1    1
 -0.01078862990728532    5    4    2    1
 0.02739814487248029    5    4    2    2
 -0.001121334639723753    5    4    3    1
 -6.19522361102859e-05    5    4    3    2
 -0.01121509386166842    5    4    3    3
 -0.001322913328481323    5    4    4    1
 -0.000219415094131411    5    4    4    2
 -0.0006798753042378933    5    4    4    3
 -0.00532100339729405    5    4    4    4
 0.0008024319642793596    5    4    5    1
 0.002092185296519544    5    4    5    2
 -0.0001807151231306775    5    4    5    3
 0.004043994402221443    5    4    5    4
 0.339590960901645    5    5    1    1
 -0.1760219325821122    5    5    2    1
 0.5168180377566074    5    5    2    2
 -0.006848821535089981    5    5    3    1
 0.002362273481246848    5    5    3    2
 0.1469197206794114    5    5    3    3
 0.003491174308832133    5    5    4    1
 0.008554216702580667    5    5    4    2
 0.01203250153546669    5    5    4    3
 0.1637752166823576    5    5    4    4
 0.01513753386016238    5    5    5    1
 0.005509752958635556    5    5    5    2
 -0.002937060408149278    5    5    5    3
 0.03138598561399135    5    5    5    4
 0.578484349474724    5    5    5    5
 -0.0138283021649695    6    1    1    1
 0.001912909154809246    6    1    2    1
 -0.01250962336671933    6    1    2    2
 0.004657364307447192    6    1    3    1
 0.001335052751903325    6    1    3    2
 0.006560869081578029    6    1    3    3
 -0.0133569696883477    6    1    4    1
 -0.01081926417006    6    1    4    2
 0.002583390813531326    6    1    4    3
 0.0002579619139768764    6    1    4    4
 -0.009509393975971735    6    1    5    1
 -0.01889990033142984    6    1    5    2
 0.0008569463026873832    6    1    5    3
 -0.002987728524846913    6    1    5    4
 -0.01738739728099047    6    1    5    5
 0.0626039559656187    6    1    6    1
 -0.00175742581218685    6    2    1    1
 0.005882961704775039    6    2    2    1
 -0.00557175758504186    6    2    2    2
 0.0008740266904879264    6    2    3    1
 0.002167260726116471    6    2    3    2
 -0.006731475789161945    6    2    3    3
 -0.01111460828898004    6    2    4    1
 -0.002163441163421658    6    2    4    2
 -0.002767314037791718    6    2    4    3
 -0.003835825422089013    6    2    4    4
 -0.02349936746092341    6    2    5    1
 0.01848944863308209    6    2    5    2
 0.001201402754215606    6    2    5    3
 -0.0004988228504987786    6    2    5    4
 -0.01268493115270886    6    2    5    5
 0.01055330627261745    6    2    6    1
 0.04798198118440501    6    2    6    2
 0.02084354322763513    6    3    1    1
 0.002592244212574388    6    3    2    1
 0.01804380088059564    6    3    2    2
 -0.001211065674976514    6    3    3    1
 -0.0006786049212830777    6    3    3    2
 -0.01205614403451751    6    3    3    3
 0.002313823790089636    6    3    4    1
 0.001104358082637686    6    3    4    2
 0.01013426964984587    6    3    4    3
 0.002592035763912473    6    3    4    4
 0.001597411561308703    6    3    5    1
 -0.0005596339973312681    6    3    5    2
 -0.001478832889088717    6    3    5    3
 0.001849259022361842    6    3    5    4
 0.016013311144983    6    3    5    5
 -0.004154151202179078    6    3    6    1
 -0.003592496988913368    6    3    6    2
 0.007328491848885195    6    3    6    3
 -0.05189804894749268    6    4    1    1
 -0.04049572354795093    6    4    2    1
 -0.01076836273252969    6    4    2    2
 0.00408127418521711    6    4    3    1
 0.001993622943476159    6    4    3    2
 0.02610798519704527    6    4    3    3
 -0.0003139773855212121    6    4    4    1
 0.0004717547065320709    6    4    4    2
 0.00801533792687913    6    4    4    3
 -0.004970097575016729    6    4    4    4
 -0.002459353269917926    6    4    5    1
 0.004838662706662561    6    4    5    2
 0.0002010046880964297    6    4    5    3
 -0.003570858325587273    6    4    5    4
 0.00392317477731301    6    4    5    5
 0.0086308238755565    6    4    6    1
 0.0007243300533086096    6    4    6    2
 -0.002761501599067119    6    4    6    3
 0.02259032913350822    6    4    6    4
 -0.0353899544518909    6    5    1    1
 -0.0777585055425445    6    5    2    1
 0.04474544305196004    6    5    2    2
 0.00290932951188947    6    5    3    1
 0.002788266602306585    6    5    3    2
 0.00459351221887409    6    5    3    3
 -0.002991595728887294    6    5    4    1
 0.001084538430043915    6    5    4    2
 0.00332603859252998    6    5    4    3
 -0.01778322362211039    6    5    4    4
 -0.006117718527510667    6    5    5    1
 0.01176419763987778    6    5    5    2
 0.0009038508073858645    6    5    5    3
 0.004605533668094273    6    5    5    4
 0.07001280503374915    6    5    5    5
 0.008102162062419281    6    5    6    1
 0.002607346199463071    6    5    6    2
 -0.001486983289703059    6    5    6    3
 0.01719748093810932    6    5    6    4
 0.04640076478658123    6    5    6    5
 0.4101966786787211    6    6    1    1
 0.03111211423399235    6    6    2    1
 0.3784858117786066    6    6    2    2
 -0.01275550091564848    6    6    3    1
 -0.005746736811229178    6    6    3    2
 0.1487870167224938    6    6    3    3
 0.01090154003458945    6    6    4    1
 0.00566821776119141    6    6    4    2
 0.00570877142956784    6    6    4    3
 0.2133725069750714    6    6    4    4
 0.01498046640065731    6    6    5    1
 -0.009592518518566275    6    6    5    2
 -0.003120870608223841    6    6    5    3
 0.0178460607989656    6    6    5    4
 0.348886445031953    6    6    5    5
 -0.02889929946274275    6    6    6    1
 -0.03176974227490139    6    6    6    2
 0.02015877823942898    6    6    6    3
 -0.03691278561399756    6    6    6    4
 -0.01473989597903035    6    6    6    5
 0.3975182745236995    6    6    6    6
 -0.002137787200457778    7    1    1    1
 -0.00637920044847334    7    1    2    1
 0.004365116204471719    7    1    2    2
 0.002750855496036494    7    1    3    1
 0.003047906738063058    7    1    3    2
 -0.002262829685048891    7    1    3    3
 -0.01987724227573928    7    1    4    1
 -0.01071629694607878    7    1    4    2
 0.002086051000794985    7    1    4    3
 -0.004593667689327726    7    1    4    4
 0.0007321641339677133    7    1    5    1
 -0.004403944635642219    7    1    5    2
 -0.0001097563947554367    7    1    5    3
 0.0008988475072833887    7    1    5    4
 0.003034072324050525    7    1    5    5
 0.01547767537880618    7    1    6    1
 0.03002071774114948    7    1    6    2
 -0.002855678395868321    7    1    6    3
 0.00237436444633142    7    1    6    4
 0.003718004040573073    7    1    6    5
 -0.02165915869477938    7    1    6    6
 0.03827248768866175    7    1    7    1
 -0.01413067799226801    7    2    1    1
 0.002459069919164092    7    2    2    1
 -0.01500573046985981    7    2    2    2
 0.003944800705799455    7    2    3    1
 3.598947295776334e-05    7    2    3    2
 0.009697965236327596    7    2    3    3
 -0.01075992172291478    7    2    4    1
 -0.009257761102513279    7    2    4    2
 0.004850760866401501    7    2    4    3
 0.001286067067420666    7    2    4    4
 -0.005947079554168942    7    2    5    1
 0.004748469613432294    7    2    5    2
 -7.447489658417789e-06    7    2    5    3
 -0.001140996427225998    7    2    5    4
 -0.01219401901589287    7    2    5    5
 0.03351689659428968    7    2    6    1
 -0.01545736335425824    7    2    6    2
 -0.00101298811206614    7    2    6    3
 0.005287565820167311    7    2    6    4
 0.001869251467535324    7    2    6    5
 -0.004296078610614042    7    2    6    6
 -0.0007860505662382357    7    2    7    1
 0.04125605214211226    7    2    7    2
 0.008076264713338936    7    3    1    1
 0.01288756010313718    7    3    2    1
 -0.0049890166944149    7    3    2    2
 -0.0005084148570539231    7    3    3    1
 -7.077080604853582e-05    7    3    3    2
 -0.0003002557685665009    7    3    3    3
 0.002947300943461158    7    3    4    1
 0.00174725246410076    7    3    4    2
 0.01665809931412185    7    3    4    3
 0.004686311709170379    7    3    4    4
 9.527361524815418e-05    7    3    5    1
 -0.001490564085171988    7    3    5    2
 -0.002310929365128731    7    3    5    3
 -0.0008962909597210802    7    3    5    4
 -0.008801397955406094    7    3    5    5
 -0.003189487985740673    7    3    6    1
 -3.97354895969596e-05    7    3    6    2
 0.001641232997975276    7    3    6    3
 -0.004653710183919082    7    3    6    4
 -0.004700757977910613    7    3    6    5
 0.002812756419023412    7    3    6    6
 -0.000185125069253794    7    3    7    1
 -0.001905615959402438    7    3    7    2
 0.02018530352769805    7    3    7    3
 -0.08701557378887964    7    4    1    1
 -0.0367741239413264    7    4    2    1
 -0.05022285618385198    7    4    2    2
 0.006720220503450521    7    4    3    1
 0.003558982565733876    7    4    3    2
 0.0401151095013129    7    4    3    3
 -0.002503780593414038    7    4    4    1
 -0.00096691616978635    7    4    4    2
 0.008976955983335489    7    4    4    3
 -0.003635132399881503    7    4    4    4
 -0.0007299248980920218    7    4    5    1
 0.004721061850909332    7    4    5    2
 -0.0002422750420681753    7    4    5    3
 -0.006224502140260732    7    4    5    4
 -0.03216353211010555    7    4    5    5
 0.006403714425256814    7    4    6    1
 0.002245716834732543    7    4    6    2
 -0.008057654545149196    7    4    6    3
 0.02151535127931388    7    4    6    4
 0.01228077361288191    7    4    6    5
 -0.06575091024569558    7    4    6    6
 0.005055035602794155    7    4    7    1
 0.004698123855000872    7    4    7    2
 0.006212532194865557    7    4    7    3
 0.04138838906891635    7    4    7    4
 0.00725771301433365    7    5    1    1
 -0.01562063324094159    7    5    2    1
 0.02234238945676017    7    5    2    2
 -0.0003880249971237163    7    5    3    1
 0.0001731493214964775    7    5    3    2
 -0.003792163328749528    7    5    3    3
 0.0009063465750987456    7    5    4    1
 0.0003482227360766161    7    5    4    2
 -0.0006313467671903772    7    5    4    3
 -0.003272262635477943    7    5    4    4
 0.004854154822830926    7    5    5    1
 -0.005752519092343355    7    5    5    2
 -0.0005364857704887084    7    5    5    3
 0.0009480880126632766    7    5    5    4
 0.0285269522519924    7    5    5    5
 0.00130510623937508    7    5    6    1
 -0.002811250234540064    7    5    6    2
 0.0005763212497638736    7    5    6    3
 0.001393866996427489    7    5    6    4
 -0.004866119470704876    7    5    6    5
 0.001779641035087191    7    5    6    6
 -0.0003003596402093996    7    5    7    1
 0.0004564741053598524    7    5    7    2
 -0.002171153880361136    7    5    7    3
 -0.001122452035581165    7    5    7    4
 0.0149554023317306    7    5    7    5
 0.05220413829304069    7    6    1    1
 0.121841800281719    7    6    2    1
 -0.07171064682000899    7    6    2    2
 -0.005550035819390368    7    6    3    1
 -0.0038665433833913    7    6    3    2
 -0.01390431915409414    7    6    3    3
 0.003095782794544366    7    6    4    1
 -0.0001183831398354428    7    6    4    2
 -0.01175612645861855    7    6    4    3
 0.02596141840948807    7    6    4    4
 0.001523787034241546    7    6    5    1
 -0.01055813876812345    7    6    5    2
 0.0001089453202157305    7    6    5    3
 -0.00485027829881447    7    6    5    4
 -0.1027811097852046    7    6    5    5
 -0.02057880461684677    7    6    6    1
 0.009544844658153622    7    6    6    2
 0.0004476306587771208    7    6    6    3
 -0.03168450436495007    7    6    6    4
 -0.0490229434266042    7    6    6    5
 0.01455992198344957    7    6    6    6
 -0.002194472390061903    7    6    7    1
 -0.01885251436131866    7    6    7    2
 0.009121964741015252    7    6    7    3
 -0.02178665864700962    7    6    7    4
 -0.009639604804344112    7    6    7    5
 0.09533691383736451    7    6    7    6
 0.301271496785621    7    7    1    1
 -0.02059227548574944    7    7    2    1
 0.3230201472639686    7    7    2    2
 -0.003749571844132168    7    7    3    1
 -0.001427989238087491    7    7    3    2
 0.2056753668854245    7    7    3    3
 0.00719085000274518    7    7    4    1
 0.004078725846733879    7    7    4    2
 0.02382704623705161    7    7    4    3
 0.2109245728986338    7    7    4    4
 0.005892816920838376    7    7    5    1
 -0.003860484964413297    7    7    5    2
 -0.003565107637690648    7    7    5    3
 0.009070026116859082    7    7    5    4
 0.3077011821374653    7    7    5    5
 -0.005836672519939987    7    7    6    1
 -0.02416023607266236    7    7    6    2
 0.01103217902174317    7    7    6    3
 -0.01093563353762952    7    7    6    4
 0.004899444692132976    7    7    6    5
 0.300919725334138    7    7    6    6
 -0.01532067467977348    7    7    7    1
 0.006368309620849602    7    7    7    2
 0.009391431922183743    7    7    7    3
 -0.02266876222964703    7    7    7    4
 0.008309392014938756    7    7    7    5
 -0.02201989321249813    7    7    7    6
 0.2857134989305627    7    7    7    7
 0.02090384743279951    8    1    1    1
 0.01348245847875036    8    1    2    1
 0.007633545583861675    8    1    2    2
 -0.001940780999238266    8    1    3    1
 -0.001667508520735509    8    1    3    2
 -0.004328269743638585    8    1    3    3
 -0.01203114715329529    8    1    4    1
 -0.008234131289093359    8    1    4    2
 0.005477228292227782    8    1    4    3
 -9.981312289251584e-05    8    1    4    4
 0.003578640069079653    8    1    5    1
 0.004830286904090046    8    1    5    2
 -0.001021324620602889    8    1    5    3
 0.002324135613140985    8    1    5    4
 0.003886172539690001    8    1    5    5
 -0.01414659824471803    8    1    6    1
 -0.01690185428154694    8    1    6    2
 0.003781558017819335    8    1    6    3
 -0.006705721520767449    8    1    6    4
 -0.006271108411909826    8    1    6    5
 0.02723306832273734    8    1    6    6
 -0.009578563773974541    8    1    7    1
 0.004749250227669788    8    1    7    2
 0.002790344643859929    8    1    7    3
 -0.007631688225674965    8    1    7    4
 -0.0009076306221734785    8    1    7    5
 0.008559545243787287    8    1    7    6
 0.01445493534381452    8    1    7    7
 0.03039943526035287    8    1    8    1
 0.02123881961354492    8    2    1    1
 0.004042144434201781    8    2    2    1
 0.01650455310332605    8    2    2    2
 -0.002349176068899946    8    2    3    1
 -0.0001468853015511684    8    2    3    2
 -0.008064046093292159    8    2    3    3
 -0.008001330611676221    8    2    4    1
 -0.004072097552712053    8    2    4    2
 0.002091062945762256    8    2    4    3
 -0.001678366192157629    8    2    4    4
 0.007557806673292936    8    2    5    1
 -0.00434716333627938    8    2    5    2
 -0.0007666634897420626    8    2    5    3
 0.002444637920910733    8    2    5    4
 0.01198865376567319    8    2    5    5
 -0.01960478451869055    8    2    6    1
 0.00502283211082078    8    2    6    2
 0.002137287921541959    8    2    6    3
 -0.006131753760008935    8    2    6    4
 -0.003212987927000181    8    2    6    5
 0.01424402807654992    8    2    6    6
 0.005982977654354633    8    2    7    1
 -0.01719354154238521    8    2    7    2
 0.002566647889147451    8    2    7    3
 -0.005884083806267597    8    2    7    4
 -0.0006364054219506898    8    2    7    5
 0.01306032878640638    8    2    7    6
 0.002894538096647919    8    2    7    7
 0.01361707097814583    8    2    8    1
 0.0188027676192035    8    2    8    2
 -0.001497184033508853    8    3    1    1
 -0.00710529942065098    8    3    2    1
 0.005737843565536674    8    3    2    2
 -0.0004785646314227337    8    3    3    1
 -0.0004662000561742846    8    3    3    2
 -0.002382735942212047    8    3    3    3
 0.002544747823774078    8    3    4    1
 0.00163511606717077    8    3    4    2
 0.008896428275411193    8    3    4    3
 0.0005212521445752266    8    3    4    4
 -0.00064822662710007    8    3    5    1
 0.0006100800289248386    8    3    5    2
 -0.0009275316542937063    8    3    5    3
 5.28593422389453e-05    8    3    5    4
 0.008056024729500885    8    3    5    5
 0.001961840613263849    8    3    6    1
 -0.0002207300625798062    8    3    6    2
 0.003908011309168691    8    3    6    3
 0.00340582052166878    8    3    6    4
 0.002825712687489968    8    3    6    5
 -0.0003453923517617452    8    3    6    6
 0.0006390565332454249    8    3    7    1
 0.001708945504204734    8    3    7    2
 0.005267177947837092    8    3    7    3
 -2.708843305015832e-05    8    3    7    4
 0.0008883889041719472    8    3    7    5
 -0.007524650905811737    8    3    7    6
 0.002849404236941146    8    3    7    7
 -0.001036628253512581    8    3    8    1
 -0.001422945043174829    8    3    8    2
 0.01696414965476449    8    3    8    3
 -0.05269226971196109    8    4    1    1
 -0.03150451032698044    8    4    2    1
 -0.02120046362447995    8    4    2    2
 0.005455456320448339    8    4    3    1
 0.002925368303734868    8    4    3    2
 0.0312648410384149    8    4    3    3
 -0.00295343608363267    8    4    4    1
 -0.001596379685189371    8    4    4    2
 0.007161343574232894    8    4    4    3
 -0.002528230562457291    8    4    4    4
 0.001124014298760565    8    4    5    1
 0.004478234401197149    8    4    5    2
 -0.0004631295118700995    8    4    5    3
 -0.001634376655601899    8    4    5    4
 -0.008452670504586823    8    4    5    5
 -0.0006406141532296909    8    4    6    1
 -0.003327429226265775    8    4    6    2
 -0.002006125984709474    8    4    6    3
 0.0101696001880277    8    4    6    4
 0.01051971129398934    8    4    6    5
 -0.02844914508029778    8    4    6    6
 -0.001588465624432301    8    4    7    1
 0.001717635726864571    8    4    7    2
 -0.001717666696425834    8    4    7    3
 0.02149484531003914    8    4    7    4
 -0.001262666359904117    8    4    7    5
 -0.01500760173735518    8    4    7    6
 -0.003540597512569186    8    4    7    7
 -0.001383179021133701    8    4    8    1
 -0.002261010902811829    8    4    8    2
 -0.008933851614641979    8    4    8    3
 0.0290201121002196    8    4    8    4
 0.01349107890939954    8    5    1    1
 0.0236767650744104    8    5    2    1
 -0.0102995523144736    8    5    2    2
 -0.001428626719260471    8    5    3    1
 -0.001079799223541377    8    5    3    2
 -0.005906132308878404    8    5    3    3
 0.001918691548663357    8    5    4    1
 0.001018455229108211    8    5    4    2
 -0.002228264323526966    8    5    4    3
 0.003947995805261245    8    5    4    4
 -0.001768930151973593    8    5    5    1
 0.001250523555534128    8    5    5    2
 0.0003369867961317538    8    5    5    3
 -0.0009520122893213871    8    5    5    4
 -0.0188933258609668    8    5    5    5
 -0.003737601199145858    8    5    6    1
 0.000884642272781036    8    5    6    2
 0.0007596463786488473    8    5    6    3
 -0.003911762665392942    8    5    6    4
 -0.004706482124645622    8    5    6    5
 0.009918232983383232    8    5    6    6
 -0.001576116904780348    8    5    7    1
 -0.002213639698081065    8    5    7    2
 0.001417934717402463    8    5    7    3
 -0.005785718429159445    8    5    7    4
 -0.007366757592725803    8    5    7    5
 0.01344134173662356    8    5    7    6
 -0.003399974020164156    8    5    7    7
 0.001078772584556014    8    5    8    1
 0.001038584769815476    8    5    8    2
 0.0002731215744111704    8    5    8    3
 -0.00568234643609619    8    5    8    4
 0.006583474772871287    8    5    8    5
 -0.058230377252286    8    6    1    1
 -0.07246299833899905    8    6    2    1
 0.01577277644424428    8    6    2    2
 0.005656870259614255    8    6    3    1
 0.003346675765311771    8    6    3    2
 0.0229230664390373    8    6    3    3
 -0.005307541751974473    8    6    4    1
 -0.002253820508327371    8    6    4    2
 0.00753815295430869    8    6    4    3
 -0.01247478031901073    8    6    4    4
 -0.003560307449684678    8    6    5    1
 0.006511410575766952    8    6    5    2
 0.0002497018120231497    8    6    5    3
 0.001582404099304341    8    6    5    4
 0.035385986946412    8    6    5    5
 0.01937465542849071    8    6    6    1
 -0.0002166380942337903    8    6    6    2
 -0.003590810727086878    8    6    6    3
 0.01763559274522177    8    6    6    4
 0.03028565221488928    8    6    6    5
 -0.03400401894874461    8    6    6    6
 0.005826742876469187    8    6    7    1
 0.01371368815449647    8    6    7    2
 -0.006317179950405528    8    6    7    3
 0.01839728103534639    8    6    7    4
 0.004221871575604896    8    6    7    5
 -0.05245074333404729    8    6    7    6
 0.003268901654629586    8    6    7    7
 -0.007854587078710612    8    6    8    1
 -0.009360152763078406    8    6    8    2
 0.001095823877858175    8    6    8    3
 0.01629954461617547    8    6    8    4
 -0.01102395509601871    8    6    8    5
 0.04111219937567075    8    6    8    6
 -0.06467143661356857    8    7    1    1
 0.02040037821906013    8    7    2    1
 -0.08546228415524526    8    7    2    2
 0.00485387637859647    8    7    3    1
 0.001949096043561282    8    7    3    2
 0.02620748203359314    8    7    3    3
 -0.00463787440130973    8    7    4    1
 -0.00327077649209694    8    7    4    2
 -0.00750934983708844    8    7    4    3
 0.005834732105362968    8    7    4    4
 -0.003467511825062132    8    7    5    1
 -0.0002475807647112373    8    7    5    2
 0.00152390084394123    8    7    5    3
 -0.008033334902024699    8    7    5    4
 -0.08301259791553083    8    7    5    5
 0.008049563356423085    8    7    6    1
 0.01259511540306744    8    7    6    2
 -0.008913774449904804    8    7    6    3
 0.005628392145509707    8    7    6    4
 -0.005440277054112877    8    7    6    5
 -0.0678581855226498    8    7    6    6
 0.008868075399886471    8    7    7    1
 0.0003667702571270043    8    7    7    2
 0.0004694528537191892    8    7    7    3
 0.02085922836539148    8    7    7    4
 -0.006274822171557156    8    7    7    5
 0.01638608040559179    8    7    7    6
 -0.04235432382902424    8    7    7    7
 -0.01060805952658499    8    7    8    1
 -0.00486094424789785    8    7    8    2
 -0.003496845654954658    8    7    8    3
 0.01028853547561432    8    7    8    4
 0.0009604184497815768    8    7    8    5
 0.002368967360976096    8    7    8    6
 0.03579358456742143    8    7    8    7
 0.2331283121795419    8    8    1    1
 0.0292290097069041    8    8    2    1
 0.2041354164418332    8    8    2    2
 -0.0009965329986819467    8    8    3    1
 -0.0009546734194515181    8    8    3    2
 0.2052967098112456    8    8    3    3
 6.626947198232311e-05    8    8    4    1
 -0.0004011515637582623    8    8    4    2
 -0.03217484250112646    8    8    4    3
 0.2108337552932117    8    8    4    4
 0.002313629636879211    8    8    5    1
 -0.002850105269335137    8    8    5    2
 0.003045229577168128    8    8    5    3
 -0.0017531010344897    8    8    5    4
 0.1860373925008062    8    8    5    5
 -0.006973071332078327    8    8    6    1
 -0.009015959744723462    8    8    6    2
 -0.002408701924563514    8    8    6    3
 -0.005079701965827044    8    8    6    4
 -0.01271133152951685    8    8    6    5
 0.2193522379541809    8    8    6    6
 -0.01094898603672571    8    8    7    1
 -0.002140272572473153    8    8    7    2
 -0.008252373113430099    8    8    7    3
 -0.009352063839831731    8    8    7    4
 0.001093755170456661    8    8    7    5
 0.01514547698142686    8    8    7    6
 0.2007883800131432    8    8    7    7
 -0.0008228811928279706    8    8    8    1
 -0.003017609773237683    8    8    8    2
 0.003825693447219544    8    8    8    3
 -0.007992318066336835    8    8    8    4
 0.004661817740998001    8    8    8    5
 -0.01796709879813564    8    8    8    6
 0.004208847158911394    8    8    8    7
 0.2635123345360351    8    8    8    8
 0.01558345386064191    9    1    1    1
 0.009901534960063263    9    1    2    1
 0.008773387170268928    9    1    2    2
 -0.003820811865085643    9    1    3    1
 -0.001767154114059784    9    1    3    2
 -0.009897041221037371    9    1    3    3
 0.004751619265952982    9    1    4    1
 0.003079965360087988    9    1    4    2
 -0.0009047332347795383    9    1    4    3
 -0.001644688031974929    9    1    4    4
 -0.01123324844208587    9    1    5    1
 -0.01926537518644031    9    1    5    2
 0.0007492082805501    9    1    5    3
 -0.001305267844332806    9    1    5    4
 -0.00401655292635613    9    1    5    5
 0.01215569131467824    9    1    6    1
 0.01225677739539292    9    1    6    2
 1.83353473677251e-05    9    1    6    3
 -0.002466018307273138    9    1    6    4
 0.002918037816096865    9    1    6    5
 -0.004435257148491416    9    1    6    6
 -0.01496157268308429    9    1    7    1
 -0.01996562958255764    9    1    7    2
 0.002948472413575321    9    1    7    3
 -0.00590738384340609    9    1    7    4
 0.0009127304007220621    9    1    7    5
 0.008970664575252632    9    1    7    6
 0.001815932008890303    9    1    7    7
 0.002302776219894007    9    1    8    1
 0.007181390994627721    9    1    8    2
 -0.0005892738347171269    9    1    8    3
 -0.003084146785207652    9    1    8    4
 -0.0003928142284628099    9    1    8    5
 -0.004310891602295726    9    1    8    6
 -0.003703872698822234    9    1    8    7
 -0.002771636518277675    9    1    8    8
 0.07789484856592477    9    1    9    1
 0.001290871361482993    9    2    1    1
 0.01998976335529767    9    2    2    1
 -0.01538869175578835    9    2    2    2
 -0.00146901326530756    9    2    3    1
 -0.002217553372263752    9    2    3    2
 -0.00215403646162309    9    2    3    3
 0.002828500932942973    9    2    4    1