 &FCI NORB=  18,NELEC= 18,MS2=0,
  ORBSYM=1,1,1,1,1,1,1,1,1,1,1,1,1,1,1,1,1,1,
  ISYM=1,
 &END
 8.984085257962768    1    1    1    1
 -1.12335866017129    2    1    1    1
 0.2335696384735655    2    1    2    1
 2.575350274186563    2    2    1    1
 -0.08036680072121483    2    2    2    1
 1.808021575169309    2    2    2    2
 0.001424628368082014    3    1    1    1
 -0.0001778287528588348    3    1    2    1
 0.0003712047252789372    3    1    2    2
 0.09794948809945497    3    1    3    1
 -0.0001320516765930954    3    2    1    1
 0.0001819974184846842    3    2    2    1
 0.0008890024391372422    3    2    2    2
 0.1108078972567089    3    2    3    1
 0.3764189923335772    3    2    3    2
 2.570903024664688    3    3    1    1
 -0.04826684992106189    3    3    2    1
 1.834942666446594    3    3    2    2
 -0.0002097086661407933    3    3    3    1
 -0.000682652828257319    3    3    3    2
 2.023469542949403    3    3    3    3
 0.002887198045276514    4    1    1    1
 -0.0003534491030735566    4    1    2    1
 0.0007667468294625846    4    1    2    2
 -2.04807723198955e-05    4    1    3    1
 -1.937431823879681e-05    4    1    3    2
 0.0001086947615091853    4    1    3    3
 0.09797001193383431    4    1    4    1
 -0.0001658067854446753    4    2    1    1
 0.0003748820686353549    4    2    2    1
 0.001906923247282207    4    2    2    2
 -1.958066967713493e-05    4    2    3    1
 -3.925625223733653e-05    4    2    3    2
 -0.000214767801316853    4    2    3    3
 0.1108239660863953    4    2    4    1
 0.3764432441676118    4    2    4    2
 -0.0002680257870188238    4    3    1    1
 9.175700610410706e-06    4    3    2    1
 -0.0001353918251421746    4    3    2    2
 -0.0002993013368805652    4    3    3    1
 -0.0007638659516424713    4    3    3    2
 -0.0001497048963124837    4    3    3    3
 -0.0001560382028457661    4    3    4    1
 -0.0004426817663247533    4    3    4    2
 0.1082006640863102    4    3    4    3
 2.571162274717183    4    4    1    1
 -0.04827781754249987    4    4    2    1
 1.835061444255665    4    4    2    2
 4.514977632436211e-05    4    4    3    1
 -0.0001997680115055105    4    4    3    2
 1.807232202720471    4    4    3    3
 -0.000452821445790642    4    4    4    1
 -0.00148131065528865    4    4    4    2
 -0.0001446098435609011    4    4    4    3
 2.023769178859412    4    4    4    4
 -0.002507342863287886    5    1    1    1
 0.000308390960797221    5    1    2    1
 -0.0006629206130497744    5    1    2    2
 -1.057364293054619e-05    5    1    3    1
 -8.523561510251435e-06    5    1    3    2
 -0.0001107310516598039    5    1    3    3
 1.602266952502955e-06    5    1    4    1
 2.645623653358256e-06    5    1    4    2
 -3.26152267074908e-06    5    1    4    3
 -0.0001080479166371774    5    1    4    4
 0.098059191083432    5    1    5    1
 0.0001806983659594766    5    2    1    1
 -0.0003268870610596793    5    2    2    1
 -0.001632985617602346    5    2    2    2
 -8.617942003040005e-06    5    2    3    1
 -1.827652742854862e-05    5    2    3    2
 8.734489675099968e-05    5    2    3    3
 2.724521475473699e-06    5    2    4    1
 -3.582644950864015e-06    5    2    4    2
 -2.309358490336555e-05    5    2    4    3
 0.0001068807797895329    5    2    4    4
 0.1109060598425306    5    2    5    1
 0.3766390201775008    5    2    5    2
 -0.0001333444294681069    5    3    1    1
 5.631334785429824e-06    5    3    2    1
 -6.419567221983986e-05    5    3    2    2
 0.0002452258605975276    5    3    3    1
 0.0005559731992691094    5    3    3    2
 -7.276603299442216e-05    5    3    3    3
 -3.375234237429186e-06    5    3    4    1
 -2.325562608863754e-05    5    3    4    2
 -5.832014933141457e-06    5    3    4    3
 -7.224651271905555e-05    5    3    4    4
 -0.0001456972985153367    5    3    5    1
 -0.0003694681886324361    5    3    5    2
 0.1082511954074778    5    3    5    3
 2.59300526070259e-05    5    4    1    1
 3.541686584913284e-07    5    4    2    1
 1.265566915573969e-05    5    4    2    2
 -3.337830899955069e-06    5    4    3    1
 -2.320230545836004e-05    5    4    3    2
 4.096586376658356e-06    5    4    3    3
 0.0002480653368618525    5    4    4    1
 0.0005758008819704391    5    4    4    2
 -1.240148620395984e-05    5    4    4    3
 8.956472734856871e-06    5    4    4    4
 -0.0002979715937002012    5    4    5    1
 -0.000753436098146828    5    4    5    2
 -1.346031867370558e-05    5    4    5    3
 0.1082629866951525    5    4    5    4
 2.572372755310595    5    5    1    1
 -0.04832137995078633    5    5    2    1
 1.835690551930006    5    5    2    2
 5.533426061842085e-05    5    5    3    1
 -0.0001273457823371473    5    5    3    2
 1.807844675641318    5    5    3    3
 0.000110050564732921    5    5    4    1
 -0.0002052305670896325    5    5    4    2
 -0.0001330625733942329    5    5    4    3
 1.807970577711107    5    5    4    4
 0.0004191423833857616    5    5    5    1
 0.001473841186109257    5    5    5    2
 -7.72352129275275e-05    5    5    5    3
 1.297302378919083e-05    5    5    5    4
 2.025186630854733    5    5    5    5
 0.2396363338062089    6    1    1    1
 -0.05048845672277354    6    1    2    1
 0.01706409289958931    6    1    2    2
 -0.0007093791386505374    6    1    3    1
 -0.0008422018178355254    6    1    3    2
 0.009799971396393551    6    1    3    3
 -0.0008761255338167709    6    1    4    1
 -0.001102013619682507    6    1    4    2
 2.897124711755868e-06    6    1    4    3
 0.009805125945256085    6    1    4    4
 -0.0008796046468060027    6    1    5    1
 -0.0008079119742313128    6    1    5    2
 -3.925177645530362e-07    6    1    5    3
 2.43198903508776e-06    6    1    5    4
 0.00979380895159411    6    1    5    5
 0.01094460852108051    6    1    6    1
 -0.3145516187787376    6    2    1    1
 0.01755651029033631    6    2    2    1
 -0.1552466172063321    6    2    2    2
 -0.0006249596132606741    6    2    3    1
 -0.001440694460206522    6    2    3    2
 -0.1607102346665618    6    2    3    3
 -0.000842705779263349    6    2    4    1
 -0.001904950492793411    6    2    4    2
 5.48455449886261e-05    6    2    4    3
 -0.1607356523168397    6    2    4    4
 -0.0005277636290161791    6    2    5    1
 -0.001435669081874909    6    2    5    2
 4.429022904306464e-05    6    2    5    3
 5.833480927799509e-05    6    2    5    4
 -0.1610873820427045    6    2    5    5
 -0.003619985039598262    6    2    6    1
 0.02377645057178487    6    2    6    2
 -0.01094295790269197    6    3    1    1
 0.0003340784591218346    6    3    2    1
 -0.005887183215765614    6    3    2    2
 -0.01717601262086619    6    3    3    1
 -0.03914137667700582    6    3    3    2
 -0.006738292244808101    6    3    3    3
 1.962531962222074e-05    6    3    4    1
 0.0001023242802531589    6    3    4    2
 -0.0004883732183414918    6    3    4    3
 -0.005715243210458918    6    3    4    4
 2.148908920848728e-05    6    3    5    1
 0.0001101018799606766    6    3    5    2
 -0.0005665588686451233    6    3    5    3
 1.797619687748013e-05    6    3    5    4
 -0.00577225295892245    6    3    5    5
 6.123941561420877e-05    6    3    6    1
 0.001169897163821296    6    3    6    2
 0.009251524450343156    6    3    6    3
 -0.01391340073841802    6    4    1    1
 0.0004012534030671466    6    4    2    1
 -0.00756808760831543    6    4    2    2
 2.066575816925831e-05    6    4    3    1
 0.0001041611798284012    6    4    3    2
 -0.007311856175932532    6    4    3    3
 -0.01718541355746831    6    4    4    1
 -0.03918768873186697    6    4    4    2
 -0.0003693869691420345    6    4    4    3
 -0.00847678471870556    6    4    4    4
 3.276739491712235e-05    6    4    5    1
 0.0001769213972727393    6    4    5    2
 1.856034539713033e-05    6    4    5    3
 -0.0005817848755641199    6    4    5    4
 -0.007328885507265017    6    4    5    5
 8.312707032308094e-05    6    4    6    1
 0.00150495623972672    6    4    6    2
 4.614660554636413e-05    6    4    6    3
 0.009265482148050888    6    4    6    4
 -0.01245277939534626    6    5    1    1
 0.0004539438555585051    6    5    2    1
 -0.006549782204984852    6    5    2    2
 1.822618193523555e-05    6    5    3    1
 0.0001084755995015544    6    5    3    2
 -0.006681495113704197    6    5    3    3
 2.747372422471228e-05    6    5    4    1
 0.000172932620261654    6    5    4    2
 1.819083977650854e-05    6    5    4    3
 -0.006696146109503579    6    5    4    4
 -0.01734150448493139    6    5    5    1
 -0.04005170784618198    6    5    5    2
 -0.0004253134598656064    6    5    5    3
 -0.0005033362226561858    6    5    5    4
 -0.008003871492531999    6    5    5    5
 4.959142221591821e-05    6    5    6    1
 0.001249245614241998    6    5    6    2
 4.609501861530861e-05    6    5    6    3
 6.263782551842836e-05    6    5    6    4
 0.009161504316309363    6    5    6    5
 0.6006186541994639    6    6    1    1
 -0.003849268985187383    6    6    2    1
 0.5659165542745664    6    6    2    2
 0.0007802277195260209    6    6    3    1
 0.004297150865606779    6    6    3    2
 0.5672726103919966    6    6    3    3
 0.001030693962527467    6    6    4    1
 0.005682670735807951    6    6    4    2
 0.0002244895371609578    6    6    4    3
 0.5672132303205361    6    6    4    4
 0.0007667247634046077    6    6    5    1
 0.004283727964534952    6    6    5    2
 0.0002222235530450091    6    6    5    3
 0.0003534120138907744    6    6    5    4
 0.5661223361007511    6    6    5    5
 0.0008681645135848754    6    6    6    1
 -0.008347695203096516    6    6    6    2
 0.0003676359754294341    6    6    6    3
 0.0005038286187845842    6    6    6    4
 0.0001695881039472544    6    6    6    5
 0.4440420314805312    6    6    6    6
 0.022477668329718    7    1    1    1
 -0.004689633251520586    7    1    2    1
 0.001707314218871026    7    1    2    2
 0.01385096786947198    7    1    3    1
 0.01485400324858926    7    1    3    2
 0.0008984285338285651    7    1    3    3
 0.01279727983011632    7    1    4    1
 0.01371672602284521    7    1    4    2
 -7.472994962022769e-05    7    1    4    3
 0.0008572561577424477    7    1    4    4
 0.002322908863386455    7    1    5    1
 0.002506792965507134    7    1    5    2
 1.838869680757351e-05    7    1    5    3
 1.510629253914868e-05    7    1    5    4
 0.0009342664276476063    7    1    5    5
 0.0007647674411900193    7    1    6    1
 -0.0005367456400680415    7    1    6    2
 -0.002350050481710724    7    1    6    3
 -0.002172456798227602    7    1    6    4
 -0.0004005117242107232    7    1    6    5
 0.0003443295493174132    7    1    6    6
 0.003783306634752544    7    1    7    1
 -0.0286119398556253    7    2    1    1
 0.001658724516888305    7    2    2    1
 -0.01383835798672359    7    2    2    2
 0.01035005957968619    7    2    3    1
 0.02464700233170863    7    2    3    2
 -0.01439663638884091    7    2    3    3
 0.009558940569816078    7    2    4    1
 0.02278048426583315    7    2    4    2
 -0.0004504297034886566    7    2    4    3
 -0.01458912880196005    7    2    4    4
 0.001757425009119405    7    2    5    1
 0.004188349287921401    7    2    5    2
 -0.0002516730242208032    7    2    5    3
 -0.0002005016352937861    7    2    5    4
 -0.01468596903066309    7    2    5    5
 -0.0005235004776504248    7    2    6    1
 0.001724811159190705    7    2    6    2
 -0.005255885738990179    7    2    6    3
 -0.004826193865141757    7    2    6    4
 -0.0008151979456385771    7    2    6    5
 -0.001483908935494662    7    2    6    6
 0.002625423257210318    7    2    7    1
 0.006063313157801859    7    2    7    2
 0.2020502286313716    7    3    1    1
 -0.006768246954225463    7    3    2    1
 0.1062307489079306    7    3    2    2
 -0.001534225849869281    7    3    3    1
 -0.003207019033643739    7    3    3    2
 0.1235200359151897    7    3    3    3
 -0.0001721759148167411    7    3    4    1
 -0.001027177463995429    7    3    4    2
 0.007988108784315134    7    3    4    3
 0.1062674603786091    7    3    4    4
 -0.0001498835489963262    7    3    5    1
 -0.0007557354461731585    7    3    5    2
 0.001445597461644179    7    3    5    3
 -5.543986931775029e-05    7    3    5    4
 0.1063515882491695    7    3    5    5
 0.001338831434667599    7    3    6    1
 -0.01583124211559088    7    3    6    2
 9.496313614667517e-05    7    3    6    3
 -0.0007798316758416744    7    3    6    4
 -0.0006557630890188876    7    3    6    5
 0.006016426680243221    7    3    6    6
 -0.0001134180366633039    7    3    7    1
 -0.00192711892327717    7    3    7    2
 0.01381006877688651    7    3    7    3
 0.1867553829657115    7    4    1    1
 -0.006254905517981105    7    4    2    1
 0.09822677946252899    7    4    2    2
 -0.000195669120721682    7    4    3    1
 -0.001045280700205523    7    4    3    2
 0.09823555258427279    7    4    3    3
 -0.001607942075629785    7    4    4    1
 -0.003613090254885342    7    4    4    2
 0.008662389520772182    7    4    4    3
 0.1142552470111513    7    4    4    4
 -0.0001238669958296244    7    4    5    1
 -0.0006038181698743482    7    4    5    2
 -6.161375156456366e-05    7    4    5    3
 0.001425880960535507    7    4    5    4
 0.09834664043739851    7    4    5    5
 0.001241849177498111    7    4    6    1
 -0.01461927722516943    7    4    6    2
 -0.0006096084948400226    7    4    6    3
 -1.655012498979136e-05    7    4    6    4
 -0.0006054250905715153    7    4    6    5
 0.00560982235625586    7    4    6    6
 -0.0001200485795421742    7    4    7    1
 -0.001778985903691134    7    4    7    2
 0.0104713006388109    7    4    7    3
 0.01215191034683501    7    4    7    4
 0.03412049611241765    7    5    1    1
 -0.00113294298591228    7    5    2    1
 0.01801320210429271    7    5    2    2
 -0.0001088758277011947    7    5    3    1
 -0.00073236106415892    7    5    3    2
 0.01799202220206007    7    5    3    3
 -8.248945243420353e-05    7    5    4    1
 -0.0005823028121439454    7    5    4    2
 -5.991630446974486e-05    7    5    4    3
 0.01796738785804082    7    5    4    4
 -0.001685238001186592    7    5    5    1
 -0.004065833819927271    7    5    5    2
 0.00871027711462973    7    5    5    3
 0.008059147235740038    7    5    5    4
 0.02096087947815911    7    5    5    5
 0.0002369664018861702    7    5    6    1
 -0.002651734335303013    7    5    6    2
 -0.0002065833193938926    7    5    6    3
 -0.0002193053680795127    7    5    6    4
 0.0005526006015629079    7    5    6    5
 0.0009192916036468533    7    5    6    6
 -4.34076180257943e-05    7    5    7    1
 -0.0002806552770433728    7    5    7    2
 0.001917346272989816    7    5    7    3
 0.001780505810334397    7    5    7    4
 0.002761669213750782    7    5    7    5
 0.010259889664301    7    6    1    1
 -0.0002570365553375499    7    6    2    1
 0.008494715180584339    7    6    2    2
 -0.006992027945931403    7    6    3    1
 -0.03891773434234989    7    6    3    2
 0.009300890836259006    7    6    3    3
 -0.006456539555525228    7    6    4    1
 -0.03595168438764216    7    6    4    2
 -0.001704169518481995    7    6    4    3
 0.008731361594940265    7    6    4    4
 -0.00124802069506407    7    6    5    1
 -0.007091544176421253    7    6    5    2
 -0.001266388288964286    7    6    5    3
 -0.00104897492039784    7    6    5    4
 0.008455065267915453    7    6    5    5
 0.0001876243040944995    7    6    6    1
 -0.0007227621149609007    7    6    6    2
 -0.006382764639750361    7    6    6    3
 -0.005902096039985334    7    6    6    4
 -0.001300555110781563    7    6    6    5
 -0.01287059394204074    7    6    6    6
 -0.001779275215050646    7    6    7    1
 0.005239438244443378    7    6    7    2
 0.0003381631559231937    7    6    7    3
 0.0007303684278315389    7    6    7    4
 0.001319897611445221    7    6    7    5
 0.1125571655496019    7    6    7    6
 0.5359065463429303    7    7    1    1
 -0.00182614768014547    7    7    2    1
 0.5110235256143054    7    7    2    2
 -0.0006500262778397452    7    7    3    1
 -0.00259975504611307    7    7    3    2
 0.5157165312432935    7    7    3    3
 -0.000210738005309496    7    7    4    1
 0.000338430434131436    7    7    4    2
 0.006986681457815937    7    7    4    3
 0.5143219901442795    7    7    4    4
 0.001021312520496121    7    7    5    1
 0.007625458841419589    7    7    5    2
 0.001575874516859772    7    7    5    3
 0.001759650777906636    7    7    5    4
 0.5071575614292568    7    7    5    5
 0.0004218678108235582    7    7    6    1
 -0.006139967591271945    7    7    6    2
 -0.0001215598747649242    7    7    6    3
 0.0004208865717572169    7    7    6    4
 0.001507496979067476    7    7    6    5
 0.4330536398256905    7    7    6    6
 -4.345539312989266e-05    7    7    7    1
 -0.001204452032781005    7    7    7    2
 0.0024056554344602    7    7    7    3
 0.002416807913505724    7    7    7    4
 0.0003084210171602889    7    7    7    5
 -0.01978969782741002    7    7    7    6
 0.4686609649249921    7    7    7    7
 -0.006758875250478709    8    1    1    1
 0.001401833959313236    8    1    2    1
 -0.0005311240214700611    8    1    2    2
 0.01320062385313426    8    1    3    1
 0.01415510796486946    8    1    3    2
 -0.0002897899747345948    8    1    3    3
 -0.01441559819348667    8    1    4    1
 -0.01545062083565913    8    1    4    2
 -1.127473615132086e-05    8    1    4    3
 -0.0002186518802949957    8    1    4    4
 0.001389909223443185    8    1    5    1
 0.00148649747806457    8    1    5    2
 2.418058114773505e-05    8    1    5    3
 -3.566743647221079e-05    8    1    5    4
 -0.0002627972356409671    8    1    5    5
 -0.0002754248290635638    8    1    6    1
 0.0001293646161073598    8    1    6    2
 -0.002237672680325415    8    1    6    3
 0.002448083386787459    8    1    6    4
 -0.0002359394824157457    8    1    6    5
 -5.841426467417515e-05    8    1    6    6
 -1.053388124355279e-05    8    1    7    1
 2.241643548506623e-05    8    1    7    2
 -0.0002136417783012402    8    1    7    3
 0.0001692978348820632    8    1    7    4
 -3.134413271617286e-05    8    1    7    5
 -9.881139026540787e-06    8    1    7    6
 -4.951655761545018e-05    8    1    7    7
 0.003933119263930892    8    1    8    1
 0.008483214777360523    8    2    1    1
 -0.0005026379871605501    8    2    2    1
 0.004065064148734723    8    2    2    2
 0.00983587171977343    8    2    3    1
 0.02331234755341674    8    2    3    2
 0.004724396594386785    8    2    3    3
 -0.01073196968599669    8    2    4    1
 -0.02543490303625497    8    2    4    2
 0.000117954847610972    8    2    4    3
 0.003824495176603977    8    2    4    4
 0.001022818213490362    8    2    5    1
 0.002401177680840066    8    2    5    2
 -0.0001186371402754355    8    2    5    3
 4.848994397073492e-05    8    2    5    4
 0.004426258677817647    8    2    5    5
 0.0001240724297165771    8    2    6    1
 -0.0005763999689044601    8    2    6    2
 -0.005101309042661889    8    2    6    3
 0.005513238008911183    8    2    6    4
 -0.0005591345578848373    8    2    6    5
 0.0003333195545019935    8    2    6    6
 2.261976144761707e-05    8    2    7    1
 -2.999628666504519e-05    8    2    7    2
 -7.22309297237754e-05    8    2    7    3
 0.0009300728850692358    8    2    7    4
 2.582953233385985e-05    8    2    7    5
 2.817962368646349e-05    8    2    7    6
 0.0004185368074910734    8    2    7    7
 0.002813693840224493    8    2    8    1
 0.00624249362587364    8    2    8    2
 0.192048523582284    8    3    1    1
 -0.006447971771844074    8    3    2    1
 0.1007896321754291    8    3    2    2
 0.0006913499205145675    8    3    3    1
 0.00226285669151962    8    3    3    2
 0.1171750911420176    8    3    3    3
 9.307390897625465e-05    8    3    4    1
 0.0003755638069504381    8    3    4    2
 -0.008987468471116915    8    3    4    3
 0.1008118122132271    8    3    4    4
 -8.592694986351753e-05    8    3    5    1
 -0.0003997451908674668    8    3    5    2
 0.0008894826625329605    8    3    5    3
 6.462956719621308e-06    8    3    5    4
 0.1009335500721313    8    3    5    5
 0.001256335088528005    8    3    6    1
 -0.0150786204130643    8    3    6    2
 -0.0007725850180509411    8    3    6    3
 -0.0005786123355618636    8    3    6    4
 -0.0006088795462184915    8    3    6    5
 0.005900214599568181    8    3    6    6
 0.0002190177922704336    8    3    7    1
 -0.001253414509541949    8    3    7    2
 0.01076343295410176    8    3    7    3
 0.007527392484416223    8    3    7    4
 0.001724969276151563    8    3    7    5
 -0.0009352122852621113    8    3    7    6
 0.004951306064802336    8    3    7    7
 4.146848986277279e-05    8    3    8    1
 0.0005244058602169317    8    3    8    2
 0.01277559225792261    8    3    8    3
 -0.2096944335556185    8    4    1    1
 0.007042517652176055    8    4    2    1
 -0.1100496393006877    8    4    2    2
 2.86087339099911e-05    8    4    3    1
 0.0003273521700169477    8    4    3    2
 -0.1100924320127896    8    4    3    3
 0.0002332059897239359    8    4    4    1
 -0.000355334319477724    8    4    4    2
 0.00821324780935158    8    4    4    3
 -0.1279501974513006    8    4    4    4
 5.518918898898217e-05    8    4    5    1
 0.0002333899302687488    8    4    5    2
 9.539488638395076e-06    8    4    5    3
 0.0008379840461177507    8    4    5    4
 -0.1102119121129779    8    4    5    5
 -0.001380808146352914    8    4    6    1
 0.01644205991711789    8    4    6    2
 0.000504563398823386    8    4    6    3
 0.0005120263360101401    8    4    6    4
 0.0006437077653932605    8    4    6    5
 -0.006512603514266514    8    4    6    6
 -9.113541857145151e-05    8    4    7    1
 0.001653588128007102    8    4    7    2
 -0.009321478566961829    8    4    7    3
 -0.01089060886441107    8    4    7    4
 -0.001637328059315235    8    4    7    5
 0.0008158826278930796    8    4    7    6
 -0.005642556895625506    8    4    7    7
 7.293948612903892e-06    8    4    8    1
 -0.0006529643319437322    8    4    8    2
 -0.01116997824013038    8    4    8    3
 0.01475278646065243    8    4    8    4
 0.02007407863073086    8    5    1    1
 -0.0006795884780551783    8    5    2    1
 0.01048287527251261    8    5    2    2
 -4.9324092935178e-05    8    5    3    1
 -0.0003859371712834031    8    5    3    2
 0.01053352171510961    8    5    3    3
 2.322447885736987e-05    8    5    4    1
 0.0002317853313724785    8    5    4    2
 5.014481108239729e-06    8    5    4    3
 0.01047339028683428    8    5    4    4
 0.0005358411454758778    8    5    5    1
 0.001374514436706495    8    5    5    2
 0.008280689786154259    8    5    5    3
 -0.009041790180524326    8    5    5    4
 0.01220619954862984    8    5    5    5
 0.0001287202179928914    8    5    6    1
 -0.001583740828069197    8    5    6    2
 -0.0001532668353437738    8    5    6    3
 3.366600754621497e-05    8    5    6    4
 -0.0002974631368129834    8    5    6    5
 0.0006730242626696994    8    5    6    6
 2.072248545366512e-05    8    5    7    1
 -0.0001155576239757089    8    5    7    2
 0.001188166645074149    8    5    7    3
 0.0007115456452475378    8    5    7    4
 0.0001782370960210135    8    5    7    5
 0.0001481402877493031    8    5    7    6
 0.0006841117185537281    8    5    7    7
 -5.746414660237949e-06    8    5    8    1
 9.082169512695104e-05    8    5    8    2
 0.001063754743386249    8    5    8    3
 -0.001175396367129763    8    5    8    4
 0.002612678034480178    8    5    8    5
 -0.005752463812602185    8    6    1    1
 0.0001043890896451814    8    6    2    1
 -0.004865113733493368    8    6    2    2
 -0.006516909235371939    8    6    3    1
 -0.03596845074652404    8    6    3    2
 -0.003793401865518021    8    6    3    3
 0.007075675196674196    8    6    4    1
 0.03903185658783786    8    6    4    2
 0.0004472106673891452    8    6    4    3
 -0.006608044204207683    8    6    4    4
 -0.0006440345065574992    8    6    5    1
 -0.003486158705074769    8    6    5    2
 -0.0007385072700735798    8    6    5    3
 0.0005130785361732805    8    6    5    4
 -0.004750906791878729    8    6    5    5
 -3.849881586870372e-05    8    6    6    1
 0.0002489831044076677    8    6    6    2
 -0.005626784243624409    8    6    6    3
 0.006088854937676224    8    6    6    4
 -0.0004344412167526288    8    6    6    5
 2.858610582987372e-05    8    6    6    6
 -1.560789771499451e-05    8    6    7    1
 5.13591619779747e-05    8    6    7    2
 -0.001730438997490525    8    6    7    3
 0.001220209771708722    8    6    7    4
 5.389536855404882e-05    8    6    7    5
 0.0008139961181231521    8    6    7    6
 0.004385744341970034    8    6    7    7
 -0.001827727517806181    8    6    8    1
 0.005392542011243496    8    6    8    2
 -0.0005587067470239652    8    6    8    3
 -0.001594254579256186    8    6    8    4
 0.0007064616551208922    8    6    8    5
 0.1035524143970866    8    6    8    6
 4.832832428013295e-05    8    7    1    1
 3.330099731720239e-06    8    7    2    1
 4.224825102432493e-05    8    7    2    2
 -0.001594476857241273    8    7    3    1
 -0.0106434309662795    8    7    3    2
 0.007667246767144595    8    7    3    3
 0.00162995514512538    8    7    4    1
 0.01020967772608023    8    7    4    2
 -0.0003912907349045317    8    7    4    3
 -0.007769701086558384    8    7    4    4
 9.533965966328887e-05    8    7    5    1
 0.0007238801630404238    8    7    5    2
 0.0005391718607860829    8    7    5    3
 -0.000121821546957472    8    7    5    4
 0.000151133771163836    8    7    5    5
 -4.942346667045637e-06    8    7    6    1
 9.275193713783804e-06    8    7    6    2
 -0.002291106401205214    8    7    6    3
 0.001939879375231764    8    7    6    4
 0.0001919344778201745    8    7    6    5
 0.0007584964832613146    8    7    6    6
 -9.745014725398309e-06    8    7    7    1
 0.0002380928910315302    8    7    7    2
 -0.001864926406180494    8    7    7    3
 0.001790308131047968    8    7    7    4
 2.191002515839098e-05    8    7    7    5
 0.006501753733321687    8    7    7    6
 0.004576744515995982    8    7    7    7
 -0.0004234264128778344    8    7    8    1
 0.002303715577873379    8    7    8    2
 -0.001588405499574935    8    7    8    3
 -0.001894273726342511    8    7    8    4
 0.000150035786823602    8    7    8    5
 0.04719500081491507    8    7    8    6
 0.04585720288733232    8    7    8    7
 0.5415972735172949    8    8    1    1
 -0.001913783828955976    8    8    2    1
 0.5153922664659989    8    8    2    2
 -0.0003146453442834568    8    8    3    1
 -0.002847553683082306    8    8    3    2
 0.5189275613856625    8    8    3    3
 -0.001981008154651671    8    8    4    1
 -0.01344447594444275    8    8    4    2
 -0.007537185718835571    8    8    4    3
 0.5207724643952792    8    8    4    4
 0.000567673188174    8    8    5    1
 0.004006460756595926    8    8    5    2
 0.0004131632073470733    8    8    5    3
 -0.0009367580625478599    8    8    5    4
 0.5110372306570301    8    8    5    5
 0.0004658066198329285    8    8    6    1
 -0.006571647364477699    8    8    6    2
 -0.001233550372800727    8    8    6    3
 -0.003434867409428596    8    8    6    4
 0.0004607299414598992    8    8    6    5
 0.4232708199035012    8    8    6    6
 -0.000225772204266406    8    8    7    1
 0.001297502839303944    8    8    7    2
 0.005674085863560612    8    8    7    3
 0.004804838482024104    8    8    7    4
 0.001475117926847628    8    8    7    5
 0.04658101920417956    8    8    7    6
 0.4054330440631909    8    8    7    7
 0.0002298897378570072    8    8    8    1
 -0.001148961645888026    8    8    8    2
 0.002492867081138243    8    8    8    3
 -0.00234218727633016    8    8    8    4
 0.0002855956429125631    8    8    8    5
 -0.02756524023962905    8    8    8    6
 -0.008730971921381718    8    8    8    7
 0.479769893955878    8    8    8    8
 0.006360788557035681    9    1    1    1
 -0.001295616630676294    9    1    2    1
 0.0005522071358801785    9    1    2    2
 0.003058217641667745    9    1    3    1
 0.003273131954947264    9    1    3    2
 0.0002749821718414374    9    1    3    3
 7.824040324551534e-05    9    1    4    1
 7.800064276438444e-05    9    1    4    2
 -6.553750678476222e-06    9    1    4    3
 0.0002732891532965985    9    1    4    4
 -0.01701656504618576    9    1    5    1
 -0.0182305376682401    9    1    5    2
 3.250959211588696e-05    9    1    5    3
 5.42526354629873e-05    9    1    5    4
 0.0001738965400359519    9    1    5    5
 0.0003974125009136943    9    1    6    1
 -2.067504211279836e-05    9    1    6    2
 -0.0005228076049426833    9    1    6    3
 -1.908344299332593e-05    9    1    6    4
 0.002901644587404478    9    1    6    5
 -7.283049799188829e-05    9    1    6    6
 6.402449094474788e-05    9    1    7    1
 1.608708155691424e-05    9    1    7    2
 1.069491742830057e-05    9    1    7    3
 4.346243755302399e-05    9    1    7    4
 0.0002842847279731923    9    1    7    5
 -4.946583658501387e-07    9    1    7    6
 -0.0001731579685593355    9    1    7    7
 0.0001520487107401965    9    1    8    1
 0.0001197114588181172    9    1    8    2
 6.565906575626457e-05    9    1    8    3
 -4.172300883127116e-05    9    1    8    4
 -8.763404747568093e-05    9    1    8    5
 -7.568862386827866e-05    9    1    8    6
 -5.868944305850465e-05    9    1    8    7
 -8.670685374127689e-05    9    1    8    8
 0.003059677616526707    9    1    9    1