 &FCI NORB=  22,NELEC=32,MS2=0,
  ORBSYM=1,1,1,1,1,1,1,1,1,1,1,1,1,1,1,1,1,1,1,1,1,1,
  ISYM=1,
 &END
 0.3989610926    1    1    1    1
 -0.0367366453    2    1    1    1
 0.0269829233    2    1    2    1
 0.1972173525    2    2    1    1
 0.094980358    2    2    2    1
 0.6923421071    2    2    2    2
 0.009308919400000001    3    1    1    1
 0.0049892373    3    1    2    1
 0.006121069    3    1    2    2
 0.1639839448    3    1    3    1
 0.0051352111    3    2    1    1
 -0.0069706016    3    2    2    1
 -0.0213053383    3    2    2    2
 -0.0240546319    3    2    3    1
 0.005469128    3    2    3    2
 0.4072166955    3    3    1    1
 -0.0348276628    3    3    2    1
 0.1876739112    3    3    2    2
 0.1099415774    3    3    3    1
 -0.0100135186    3    3    3    2
 0.4866555546    3    3    3    3
 -0.0155190172    4    1    1    1
 -0.0154017841    4    1    2    1
 -0.0122827974    4    1    2    2
 0.0068540129    4    1    3    1
 0.009461457499999999    4    1    3    2
 -0.0285210996    4    1    3    3
 0.1474729294    4    1    4    1
 -0.0173345462    4    2    1    1
 0.0186732369    4    2    2    1
 0.0591465412    4    2    2    2
 0.0097699702    4    2    3    1
 -0.0069463005    4    2    3    2
 -0.0093560298    4    2    3    3
 -0.0348849875    4    2    4    1
 0.0178198392    4    2    4    2
 0.0082680384    4    3    1    1
 0.0119785633    4    3    2    1
 0.0118877041    4    3    2    2
 -0.0264532385    4    3    3    1
 -0.0044032304    4    3    3    2
 0.00509033    4    3    3    3
 -0.1122882423    4    3    4    1
 0.0257745265    4    3    4    2
 0.0892790758    4    3    4    3
 0.3896090643    4    4    1    1
 -0.048514185    4    4    2    1
 0.1729860355    4    4    2    2
 -0.1124291372    4    4    3    1
 0.0269881762    4    4    3    2
 0.3234442776    4    4    3    3
 0.0237497249    4    4    4    1
 -0.0380093086    4    4    4    2
 -0.005781288    4    4    4    3
 0.4916180195    4    4    4    4
 0.0313646272    5    1    1    1
 -0.0058537576    5    1    2    1
 0.0027007953    5    1    2    2
 -0.0006951828    5    1    3    1
 0.0007282747    5    1    3    2
 0.0163425908    5    1    3    3
 0.0002970798    5    1    4    1
 -0.0015984102    5    1    4    2
 -0.0005167709    5    1    4    3
 0.0174671764    5    1    4    4
 0.0451125421    5    1    5    1
 -0.008237614399999999    5    2    1    1
 0.0018013845    5    2    2    1
 0.0038532659    5    2    2    2
 -0.0006178874    5    2    3    1
 5.17668e-05    5    2    3    2
 -0.0067363765    5    2    3    3
 0.0037141075    5    2    4    1
 0.0002164897    5    2    4    2
 -0.0029462589    5    2    4    3
 -0.0039201065    5    2    4    4
 -0.007990136700000001    5    2    5    1
 0.0026345796    5    2    5    2
 -0.0018493877    5    3    1    1
 -0.0014097652    5    3    2    1
 -0.0033751556    5    3    2    2
 -0.0317131727    5    3    3    1
 0.004167143    5    3    3    2
 -0.0251155552    5    3    3    3
 -0.0008173787    5    3    4    1
 -0.0027921024    5    3    4    2
 0.0054934268    5    3    4    3
 0.0260357209    5    3    4    4
 0.0007188794    5    3    5    1
 0.0010053606    5    3    5    2
 0.0421414619    5    3    5    3
 0.0015389608    5    4    1    1
 0.0049213927    5    4    2    1
 0.0098420664    5    4    2    2
 -0.0007212868    5    4    3    1
 -0.0028720953    5    4    3    2
 0.0055125732    5    4    3    3
 -0.0299448039    5    4    4    1
 0.008132989700000001    5    4    4    2
 0.0268030842    5    4    4    3
 -0.0081864691    5    4    4    4
 -0.0020639728    5    4    5    1
 -0.0038302899    5    4    5    2
 0.0010285157    5    4    5    3
 0.0404910362    5    4    5    4
 0.3586771809    5    5    1    1
 -0.0337284909    5    5    2    1
 0.1765029974    5    5    2    2
 0.0032834819    5    5    3    1
 0.005986585    5    5    3    2
 0.3674969078    5    5    3    3
 -0.0084702163    5    5    4    1
 -0.0180285422    5    5    4    2
 0.0041145237    5    5    4    3
 0.3608356392    5    5    4    4
 0.0021031741    5    5    5    1
 -0.002847418    5    5    5    2
 -0.000810873    5    5    5    3
 0.0010531998    5    5    5    4
 0.3648761008    5    5    5    5
 0.0012067189    6    1    1    1
 -0.0002419912    6    1    2    1
 0.000373005    6    1    2    2
 0.0049437774    6    1    3    1
 -0.0012057586    6    1    3    2
 0.0025159971    6    1    3    3
 0.002568549    6    1    4    1
 -0.0006553073    6    1    4    2
 -0.0018875139    6    1    4    3
 -0.0014629163    6    1    4    4
 0.0015657345    6    1    5    1
 -0.0013341004    6    1    5    2
 0.0053455381    6    1    5    3
 0.0025363108    6    1    5    4
 6.03979e-05    6    1    5    5
 0.0069450168    6    1    6    1
 -0.0004751966    6    2    1    1
 0.000322308    6    2    2    1
 0.0001866581    6    2    2    2
 -0.0107892894    6    2    3    1
 -0.0005567664    6    2    3    2
 -0.0061860753    6    2    3    3
 -0.0050722144    6    2    4    1
 -0.0004380156    6    2    4    2
 0.0050069372    6    2    4    3
 0.0060482258    6    2    4    4
 -0.0014889153    6    2    5    1
 -0.0048775592    6    2    5    2
 0.0045392405    6    2    5    3
 0.0015960647    6    2    5    4
 0.0002122483    6    2    5    5
 0.0230230154    6    2    6    1
 0.1246306307    6    2    6    2
 0.0101306356    6    3    1    1
 -0.0040899118    6    3    2    1
 -0.009351596699999999    6    3    2    2
 -0.0011000317    6    3    3    1
 0.000788449    6    3    3    2
 0.0081371906    6    3    3    3
 0.0003899991    6    3    4    1
 -0.0019566503    6    3    4    2
 3.28572e-05    6    3    4    3
 0.009818818199999999    6    3    4    4
 0.0073542318    6    3    5    1
 -0.0007438332    6    3    5    2
 0.0042994888    6    3    5    3
 -0.0027047855    6    3    5    4
 0.0039931582    6    3    5    5
 9.77158e-05    6    3    6    1
 -0.004006075    6    3    6    2
 0.0038942942    6    3    6    3
 0.0053589521    6    4    1    1
 -0.0018886747    6    4    2    1
 -0.0044333129    6    4    2    2
 -0.0016592037    6    4    3    1
 0.0003934418    6    4    3    2
 0.0041841477    6    4    3    3
 -0.0016719159    6    4    4    1
 -0.0006075205    6    4    4    2
 0.0015951472    6    4    4    3
 0.0051260976    6    4    4    4
 0.0035892264    6    4    5    1
 -0.001081707    6    4    5    2
 -0.0020872726    6    4    5    3
 -0.0012874884    6    4    5    4
 0.0021475112    6    4    5    5
 0.0014688166    6    4    6    1
 0.0120270614    6    4    6    2
 0.0006200699    6    4    6    3
 0.002805667    6    4    6    4
 0.0066861984    6    5    1    1
 -0.0051197174    6    5    2    1
 -0.0179670177    6    5    2    2
 0.0200771903    6    5    3    1
 -0.0011097424    6    5    3    2
 0.0186871896    6    5    3    3
 0.0108703397    6    5    4    1
 -0.0038464354    6    5    4    2
 -0.0110937614    6    5    4    3
 -0.0044945812    6    5    4    4
 4.3945e-05    6    5    5    1
 7.057479999999999e-05    6    5    5    2
 -0.0070183986    6    5    5    3
 -0.0041737251    6    5    5    4
 0.0072842224    6    5    5    5
 -0.0004818161    6    5    6    1
 -0.0026569131    6    5    6    2
 7.952479999999999e-05    6    5    6    3
 0.0005816826999999999    6    5    6    4
 0.0056566885    6    5    6    5
 0.198326205    6    6    1    1
 0.08248603879999999    6    6    2    1
 0.6180281182    6    6    2    2
 0.0120849048    6    6    3    1
 -0.01986359    6    6    3    2
 0.1960815789    6    6    3    3
 -0.0226735351    6    6    4    1
 0.0533000216    6    6    4    2
 0.0183829213    6    6    4    3
 0.1691191419    6    6    4    4
 0.00088024    6    6    5    1
 0.002470138    6    6    5    2
 -0.0051037357    6    6    5    3
 0.0124983996    6    6    5    4
 0.1806914842    6    6    5    5
 0.0002492445    6    6    6    1
 8.03846e-05    6    6    6    2
 -0.009752106700000001    6    6    6    3
 -0.0044407396    6    6    6    4
 -0.0165443616    6    6    6    5
 0.5894590115    6    6    6    6
 -0.0037775056    7    1    1    1
 -0.0039087991    7    1    2    1
 -0.0133538442    7    1    2    2
 -0.0066783551    7    1    3    1
 0.0017997234    7    1    3    2
 -0.0038656181    7    1    3    3
 0.0100232141    7    1    4    1
 -0.0031814917    7    1    4    2
 -0.0031474914    7    1    4    3
 0.0024802933    7    1    4    4
 -0.0030241294    7    1    5    1
 -0.0003459627    7    1    5    2
 -0.0096636894    7    1    5    3
 0.0138032778    7    1    5    4
 -0.0003369367    7    1    5    5
 -0.0007506917    7    1    6    1
 0.0003394824    7    1    6    2
 0.002017159    7    1    6    3
 0.0021375835    7    1    6    4
 0.0006796581    7    1    6    5
 -0.0131301952    7    1    6    6
 0.0287160437    7    1    7    1
 -0.014869128    7    2    1    1
 0.0018787898    7    2    2    1
 0.0011992018    7    2    2    2
 -0.0008591523    7    2    3    1
 -0.0004708883    7    2    3    2
 -0.0154648655    7    2    3    3
 0.0029578676    7    2    4    1
 0.001492692    7    2    4    2
 -0.0023472886    7    2    4    3
 -0.0122822115    7    2    4    4
 -0.0017749663    7    2    5    1
 0.0043725108    7    2    5    2
 0.002630764    7    2    5    3
 -0.0044272831    7    2    5    4
 -0.0119037692    7    2    5    5
 0.0004168872    7    2    6    1
 0.0024997423    7    2    6    2
 0.0002107013    7    2    6    3
 0.0001416942    7    2    6    4
 -0.0003906211    7    2    6    5
 0.0012840452    7    2    6    6
 0.0036081996    7    2    7    1
 0.0360008281    7    2    7    2
 -0.0115145577    7    3    1    1
 0.0005675993    7    3    2    1
 -0.0058578236    7    3    2    2
 0.0121753754    7    3    3    1
 -0.0017314712    7    3    3    2
 -0.0008609946    7    3    3    3
 0.008830869999999999    7    3    4    1
 -0.0012440498    7    3    4    2
 -0.0080385114    7    3    4    3
 -0.0137986069    7    3    4    4
 -0.0136848365    7    3    5    1
 0.0031102179    7    3    5    2
 -0.0124011542    7    3    5    3
 -0.010677362    7    3    5    4
 0.0003684345    7    3    5    5
 0.0016194855    7    3    6    1
 -6.0574e-05    7    3    6    2
 -0.0010945418    7    3    6    3
 -0.00145247    7    3    6    4
 0.0024926508    7    3    6    5
 -0.0055806497    7    3    6    6
 0.0024314374    7    3    7    1
 -4.7337e-06    7    3    7    2
 0.0283017083    7    3    7    3
 0.016676732    7    4    1    1
 0.0006358243    7    4    2    1
 0.0146370517    7    4    2    2
 0.008971893200000001    7    4    3    1
 -0.0019700252    7    4    3    2
 0.0157429752    7    4    3    3
 -0.0044581627    7    4    4    1
 0.0018415541    7    4    4    2
 0.0018578171    7    4    4    3
 0.0021097916    7    4    4    4
 0.0198408054    7    4    5    1
 -0.0048335692    7    4    5    2
 -0.01077606    7    4    5    3
 0.009570813100000001    7    4    5    4
 -0.0014273284    7    4    5    5
 0.0022202272    7    4    6    1
 0.0002351152    7    4    6    2
 -0.0009251834999999999    7    4    6    3
 -0.0004729796    7    4    6    4
 -7.68149e-05    7    4    6    5
 0.0146626907    7    4    6    6
 -0.0042188743    7    4    7    1
 0.0002806949    7    4    7    2
 -0.0008577983    7    4    7    3
 0.0267338914    7    4    7    4
 -0.0127790024    7    5    1    1
 -0.0049008983    7    5    2    1
 0.0022790123    7    5    2    2
 -0.0398862077    7    5    3    1
 0.0094839665    7    5    3    2
 -0.0453719909    7    5    3    3
 0.0566539951    7    5    4    1
 -0.0150162206    7    5    4    2
 -0.0381697625    7    5    4    3
 0.0344083324    7    5    4    4
 0.001760809    7    5    5    1
 0.0028753301    7    5    5    2
 0.0159686091    7    5    5    3
 -0.0234079071    7    5    5    4
 -0.0102248693    7    5    5    5
 0.0002602187    7    5    6    1
 0.0013466057    7    5    6    2
 0.0013522298    7    5    6    3
 -0.0007802987    7    5    6    4
 -0.0019301963    7    5    6    5
 -0.004565995    7    5    6    6
 -0.0045471752    7    5    7    1
 0.0052168033    7    5    7    2
 0.0003127728    7    5    7    3
 -0.0073938348    7    5    7    4
 0.0491367247    7    5    7    5
 -0.0035737874    7    6    1    1
 0.0016068015    7    6    2    1
 0.0078960526    7    6    2    2
 0.007390091    7    6    3    1
 -0.0006896711    7    6    3    2
 -0.000424112    7    6    3    3
 0.0076360654    7    6    4    1
 0.0001308454    7    6    4    2
 -0.0066342404    7    6    4    3
 -0.0071115586    7    6    4    4
 9.46007e-05    7    6    5    1
 0.0006242805    7    6    5    2
 -0.0017275718    7    6    5    3
 -0.0025118482    7    6    5    4
 -0.0038049623    7    6    5    5
 -0.0012584654    7    6    6    1
 -0.0059564508    7    6    6    2
 -0.0002638866    7    6    6    3
 -0.0002566187    7    6    6    4
 0.002532325    7    6    6    5
 0.0069390907    7    6    6    6
 -0.0005547861    7    6    7    1
 0.0005246373    7    6    7    2
 0.0006934406    7    6    7    3
 -7.362839999999999e-05    7    6    7    4
 0.0015719445    7    6    7    5
 0.0115972882    7    6    7    6
 0.3077127514    7    7    1    1
 0.0052116762    7    7    2    1
 0.3245362976    7    7    2    2
 0.0112364932    7    7    3    1
 -0.0036335168    7    7    3    2
 0.3161672247    7    7    3    3
 -0.0178636614    7    7    4    1
 0.0072051868    7    7    4    2
 0.0109187911    7    7    4    3
 0.2946152977    7    7    4    4
 0.0051342186    7    7    5    1
 6.76063e-05    7    7    5    2
 -0.0030799499    7    7    5    3
 0.0016786172    7    7    5    4
 0.2925129997    7    7    5    5
 -2.73574e-05    7    7    6    1
 -0.0002055402    7    7    6    2
 0.0013781304    7    7    6    3
 0.0009266622    7    7    6    4
 -8.754600000000001e-05    7    7    6    5
 0.3041730238    7    7    6    6
 -0.0045801994    7    7    7    1
 0.0049022719    7    7    7    2
 -0.0026260245    7    7    7    3
 0.0069827042    7    7    7    4
 -0.0110963854    7    7    7    5
 -1.68728e-05    7    7    7    6
 0.3126006805    7    7    7    7
 0.0002941675    8    1    1    1
 0.0005445105    8    1    2    1
 0.0010038352    8    1    2    2
 -0.0151309808    8    1    3    1
 0.0026238648    8    1    3    2
 -0.0044966678    8    1    3    3
 -0.0087525095    8    1    4    1
 0.0016144064    8    1    4    2
 0.0048822048    8    1    4    3
 0.0051250718    8    1    4    4
 0.00021806    8    1    5    1
 0.0003289116    8    1    5    2
 -0.0236444465    8    1    5    3
 -0.0133548408    8    1    5    4
 0.0001567913    8    1    5    5
 -0.0079633333    8    1    6    1
 0.0043624946    8    1    6    2
 -0.0022961123    8    1    6    3
 0.0023374353    8    1    6    4
 0.0010127186    8    1    6    5
 0.0011197105    8    1    6    6
 0.0003108492    8    1    7    1
 -0.0004169542    8    1    7    2
 0.0011854322    8    1    7    3
 0.0004409759    8    1    7    4
 -0.0002463743    8    1    7    5
 -0.0006112194    8    1    7    6
 0.0017418652    8    1    7    7
 0.0371283403    8    1    8    1
 0.0011010038    8    2    1    1
 -0.0002100294    8    2    2    1
 0.0001842265    8    2    2    2
 0.0037055234    8    2    3    1
 -0.0009017572    8    2    3    2
 0.0022994352    8    2    3    3
 0.0019232686    8    2    4    1
 -0.0005729103    8    2    4    2
 -0.001305342    8    2    4    3
 -0.0006447476    8    2    4    4
 0.000466785    8    2    5    1
 -0.0014914698    8    2    5    2
 0.0028533437    8    2    5    3
 0.0014997833    8    2    5    4
 0.0004111215    8    2    5    5
 0.0068867714    8    2    6    1
 0.0293507555    8    2    6    2
 -0.0007708439    8    2    6    3
 0.0030749898    8    2    6    4
 0.0002024438    8    2    6    5
 4.23247e-05    8    2    6    6
 -0.0003354761    8    2    7    1
 -0.0007937397    8    2    7    2
 0.0003617811    8    2    7    3
 0.0003700127    8    2    7    4
 -0.0001268431    8    2    7    5
 -0.0003179699    8    2    7    6
 -0.0002510524    8    2    7    7
 -0.0052352886    8    2    8    1
 0.008716611399999999    8    2    8    2
 -0.0277161442    8    3    1    1
 0.0080366894    8    3    2    1
 0.0063244907    8    3    2    2
 0.006753551    8    3    3    1
 -0.0021547039    8    3    3    2
 -0.0140899099    8    3    3    3
 -0.0061533565    8    3    4    1
 0.0044834625    8    3    4    2
 0.0043213418    8    3    4    3
 -0.0261563235    8    3    4    4
 -0.033397865    8    3    5    1
 0.0041159701    8    3    5    2
 -0.0144857561    8    3    5    3
 0.0149836931    8    3    5    4
 -0.0001668995    8    3    5    5
 -0.0026702297    8    3    6    1
 -0.0018989577    8    3    6    2
 -0.0115338855    8    3    6    3
 -0.0026984108    8    3    6    4
 0.0009888004999999999    8    3    6    5
 0.0088962881    8    3    6    6
 0.002084137    8    3    7    1
 -0.0004676995    8    3    7    2
 0.0064033622    8    3    7    3
 -0.0040974976    8    3    7    4
 -0.0124559576    8    3    7    5
 3.73557e-05    8    3    7    6
 -0.0034298408    8    3    7    7
 0.0019740654    8    3    8    1
 -0.0001978391    8    3    8    2
 0.0460331318    8    3    8    3
 -0.0161564347    8    4    1    1
 0.004240686    8    4    2    1
 0.0019074604    8    4    2    2
 -0.0076562077    8    4    3    1
 -0.0001959505    8    4    3    2
 -0.0149219297    8    4    3    3
 -0.0072758183    8    4    4    1
 0.0022947831    8    4    4    2
 0.0067483517    8    4    4    3
 -0.0075232959    8    4    4    4
 -0.0190266275    8    4    5    1
 0.0020879908    8    4    5    2
 0.0150059662    8    4    5    3
 0.0159753491    8    4    5    4
 -4.07655e-05    8    4    5    5
 0.0022431666    8    4    6    1
 0.0062363722    8    4    6    2
 -0.0026692893    8    4    6    3
 -0.0052779702    8    4    6    4
 -0.0039906551    8    4    6    5
 0.0028960796    8    4    6    6
 0.0008752118    8    4    7    1
 1.5106e-05    8    4    7    2
 -0.0023251139    8    4    7    3
 -0.0053670762    8    4    7    4
 -0.0031253776    8    4    7    5
 -0.0014443277    8    4    7    6
 -0.0034129332    8    4    7    7
 -0.0062261585    8    4    8    1
 -0.0007840905    8    4    8    2
 0.010459383    8    4    8    3
 0.0340306129    8    4    8    4
 0.0012158336    8    5    1    1
 0.0016767417    8    5    2    1
 -0.0020277759    8    5    2    2
 -0.0982991308    8    5    3    1
 0.0105466831    8    5    3    2
 -0.0537815625    8    5    3    3
 -0.0550398476    8    5    4    1
 0.0056741341    8    5    4    2
 0.0550726409    8    5    4    3
 0.0598605613    8    5    4    4
 0.0001507531    8    5    5    1
 -0.0015220254    8    5    5    2
 0.0378753056    8    5    5    3
 0.0216299694    8    5    5    4
 0.002576573    8    5    5    5
 0.000753099    8    5    6    1
 0.0104526314    8    5    6    2
 0.0022133468    8    5    6    3
 -0.0003987769    8    5    6    4
 -0.020427355    8    5    6    5
 -0.0020297612    8    5    6    6
 -0.0001963961    8    5    7    1
 -0.0006597276999999999    8    5    7    2
 -0.018462004    8    5    7    3
 -0.0060963308    8    5    7    4
 0.0043615374    8    5    7    5
 -0.006875113    8    5    7    6
 -0.001216876    8    5    7    7
 -0.0071139189    8    5    8    1
 -0.0002785062    8    5    8    2
 -0.0049811243    8    5    8    3
 0.0189532533    8    5    8    4
 0.1031706448    8    5    8    5
 -0.0393135177    8    6    1    1
 0.0259858403    8    6    2    1
 0.1019537741    8    6    2    2
 -0.0070098379    8    6    3    1
 -0.0042018032    8    6    3    2
 -0.048367015    8    6    3    3
 0.0041941806    8    6    4    1
 0.0143107626    8    6    4    2
 -0.0014110368    8    6    4    3
 -0.0370591211    8    6    4    4
 -0.0016276489    8    6    5    1
 0.0023127712    8    6    5    2
 0.0025891149    8    6    5    3
 -0.0008594023    8    6    5    4
 -0.0399660773    8    6    5    5
 3.98756e-05    8    6    6    1
 0.0006575671    8    6    6    2
 -0.0027605287    8    6    6    3
 -0.0015933458    8    6    6    4
 -0.006143723    8    6    6    5
 0.09195866599999999    8    6    6    6
 -0.0025502775    8    6    7    1
 0.0052859635    8    6    7    2
 -0.0006652533    8    6    7    3
 0.0004436868    8    6    7    4
 0.0061837729    8    6    7    5
 0.0020761936    8    6    7    6
 0.0035667521    8    6    7    7
 5.84909e-05    8    6    8    1
 -0.0002049019    8    6    8    2
 0.0015950404    8    6    8    3
 0.0017004225    8    6    8    4
 0.0026208878    8    6    8    5
 0.0322239689    8    6    8    6
 0.0022411729    8    7    1    1
 -0.0010995702    8    7    2    1
 -0.0036184711    8    7    2    2
 0.0142180456    8    7    3    1
 -0.0014287613    8    7    3    2
 0.0118644096    8    7    3    3
 0.0048359798    8    7    4    1
 -0.0007045271    8    7    4    2
 -0.0061527318    8    7    4    3
 -0.0079743005    8    7    4    4
 -0.0002893569    8    7    5    1
 -7.308e-05    8    7    5    2
 -0.0117627362    8    7    5    3
 -0.0037507327    8    7    5    4
 0.0025147851    8    7    5    5
 -0.0008579187    8    7    6    1
 -0.000555289    8    7    6    2
 -0.000789236    8    7    6    3
 0.0003235416    8    7    6    4
 0.0028085418    8    7    6    5
 -0.0023705954    8    7    6    6
 0.0012787097    8    7    7    1
 -0.00090179    8    7    7    2
 0.0054366712    8    7    7    3
 0.0024675941    8    7    7    4
 -0.0027613932    8    7    7    5
 0.0015333465    8    7    7    6
 0.0006782337    8    7    7    7
 0.0061285222    8    7    8    1
 -0.000453623    8    7    8    2
 0.0025529278    8    7    8    3
 -0.0049561471    8    7    8    4
 -0.0154844855    8    7    8    5
 -0.0021920344    8    7    8    6
 0.010218023    8    7    8    7
 0.362215893    8    8    1    1
 -0.0254606176    8    8    2    1
 0.2074139175    8    8    2    2
 0.0106953253    8    8    3    1
 0.0017977656    8    8    3    2
 0.3792982245    8    8    3    3
 -0.0346328872    8    8    4    1
 -0.007976556399999999    8    8    4    2
 0.0247329715    8    8    4    3
 0.3496008167    8    8    4    4
 0.0041986768    8    8    5    1
 -0.0048913903    8    8    5    2
 -0.0051454321    8    8    5    3
 0.0178564944    8    8    5    4
 0.3529525619    8    8    5    5
 0.0003427039    8    8    6    1
 0.0004294629    8    8    6    2
 0.0031546773    8    8    6    3
 0.0024181615    8    8    6    4
 0.0045786288    8    8    6    5
 0.2120456353    8    8    6    6
 0.0035998876    8    8    7    1
 -0.0134097196    8    8    7    2
 -0.0052086499    8    8    7    3
 0.0066705345    8    8    7    4
 -0.0247752042    8    8    7    5
 -0.0043513996    8    8    7    6
 0.29402375    8    8    7    7
 -0.0016954685    8    8    8    1
 0.000691323    8    8    8    2
 0.0017685567    8    8    8    3
 0.0013875092    8    8    8    4
 0.0089397352    8    8    8    5
 -0.0362817561    8    8    8    6
 0.0016176439    8    8    8    7
 0.3661562882    8    8    8    8
 -0.0012127213    9    1    1    1
 0.0001690672    9    1    2    1
 0.0057272506    9    1    2    2
 -0.005630153    9    1    3    1
 0.0012659422    9    1    3    2
 -0.0045034359    9    1    3    3
 0.0105675058    9    1    4    1
 -0.0021176572    9    1    4    2
 -0.0050763327    9    1    4    3
 0.0038159796    9    1    4    4
 -0.0007094539    9    1    5    1
 -0.0018566578    9    1    5    2
 -0.0072320813    9    1    5    3
 0.0131337869    9    1    5    4
 -0.0003884731    9    1    5    5
 -0.0001213474    9    1    6    1
 -4.48113e-05    9    1    6    2
 -0.0023254264    9    1    6    3
 -0.0003130308    9    1    6    4
 -0.0002001881    9    1    6    5
 0.0049971691    9    1    6    6
 0.007983719800000001    9    1    7    1
 -0.0067867612    9    1    7    2
 -0.0009454789    9    1    7    3
 0.0036391339    9    1    7    4
 -0.0024768321    9    1    7    5
 -9.131350000000001e-05    9    1    7    6
 -0.0026069081    9    1    7    7
 -0.0002043606    9    1    8    1
 0.0002251471    9    1    8    2
 0.0054218871    9    1    8    3
 0.0019251625    9    1    8    4
 -7.87587e-05    9    1    8    5
 0.0003746965    9    1    8    6
 0.0007881383    9    1    8    7
 0.0033588853    9    1    8    8
 0.0315337959    9    1    9    1
 0.0066895419    9    2    1    1
 0.0007956477    9    2    2    1
 0.0044372926    9    2    2    2
 0.0020574956    9    2    3    1
 -0.000320939    9    2    3    2
 0.0083399953    9    2    3    3
 -0.0043686663    9    2    4    1
 0.0003334401    9    2    4    2
 0.0023768538    9    2    4    3
 0.0047997437    9    2    4    4
 -0.0023929701    9    2    5    1
 -0.0019107284    9    2    5    2
 0.0019671668    9    2    5    3
 -0.0033168454    9    2    5    4
 0.007696596    9    2    5    5
 -4.9316e-06    9    2    6    1
 0.0001504352    9    2    6    2
 -0.0003721999    9    2    6    3
 -0.0004077499    9    2    6    4
 6.657909999999999e-05    9    2    6    5
 0.0032548665    9    2    6    6
 -0.0083303683    9    2    7    1
 -0.0266682055    9    2    7    2
 0.0015755244    9    2    7    3
 -0.0040876304    9    2    7    4
 -0.0011875628    9    2    7    5
 -0.0001338727    9    2    7    6
 -0.0035712381    9    2    7    7
 0.0003419859    9    2    8    1
 0.0010905722    9    2    8    2
 0.0004235195    9    2    8    3
 0.000625619    9    2    8    4
 0.0003863288    9    2    8    5
 -0.0020420276    9    2    8    6
 0.0002334487    9    2    8    7
 0.0062425541    9    2    8    8
 -0.0022425519    9    2    9    1
 0.023150807    9    2    9    2
 -0.0118548691    9    3    1    1
 0.0018006315    9    3    2    1
 -0.0018682083    9    3    2    2
 -0.0011630474    9    3    3    1
 0.0001993604    9    3    3    2
 -0.009621556700000001    9    3    3    3
 0.0009060005    9    3    4    1
 0.0005614259    9    3    4    2
 -0.0010234597    9    3    4    3
 -0.0077425652    9    3    4    4
 -0.0107432661    9    3    5    1
 0.0029749059    9    3    5    2
 -0.0070604531    9    3    5    3
 -0.0100639457    9    3    5    4
 -0.001834738    9    3    5    5
 -0.0025912898    9    3    6    1
 -0.0015256517    9    3    6    2
 -0.0020569843    9    3    6    3
 0.0001115628    9    3    6    4
 0.0014380705    9    3    6    5
 -0.0016053948    9    3    6    6
 -0.0008463709    9    3    7    1
 0.0023370941    9    3    7    2
 0.008690428599999999    9    3    7    3
 -0.0054072175    9    3    7    4
 0.0025901121    9    3    7    5
 0.0007987792    9    3    7    6
 -0.0020685017    9    3    7    7
 0.0059454807    9    3    8    1
 -0.0010208887    9    3    8    2
 0.0061086088    9    3    8    3
 -0.0021462792    9    3    8    4
 -0.0073209053    9    3    8    5
 0.0009490996    9    3    8    6
 0.0020809896    9    3    8    7
 -0.0063659299    9    3    8    8
 -0.0013592217    9    3    9    1
 0.0006200176    9    3    9    2
 0.0262275525    9    3    9    3
 0.0229604856    9    4    1    1
 -0.0034192187    9    4    2    1
 0.0030568948    9    4    2    2
 0.0009396848    9    4    3    1
 0.0002330466    9    4    3    2
 0.0191200284    9    4    3    3
 -0.0037068737    9    4    4    1
 -0.0005220317    9    4    4    2
 0.0030029631    9    4    4    3
 0.0149263719    9    4    4    4
 0.0197663571    9    4    5    1
 -0.0053767256    9    4    5    2
 -0.0102044743    9    4    5    3
 0.0103568294    9    4    5    4
 0.004256753    9    4    5    5
 -0.0001333776    9    4    6    1
 -0.0010164472    9    4    6    2
 0.0014749334    9    4    6    3
 0.0020979233    9    4    6    4
 0.000551091    9    4    6    5
 0.0029753672    9    4    6    6
 0.0036118869    9    4    7    1
 -0.0060196469    9    4    7    2
 -0.0057531728    9    4    7    3
 0.0147262323    9    4    7    4
 -0.0082228713    9    4    7    5
 -0.0003134281    9    4    7    6
 0.00478894    9    4    7    7
 0.0022148218    9    4    8    1
 0.0001091579    9    4    8    2
 -0.0061846533    9    4    8    3
 -0.0072482303    9    4    8    4
 -0.0017563494    9    4    8    5
 -0.0028473381    9    4    8    6
 0.0014771857    9    4    8    7
 0.0121900296    9    4    8    8
 0.0040082608    9    4    9    1
 -0.0013802361    9    4    9    2
 -0.0050667214    9    4    9    3
 0.0327561291    9    4    9    4
 -0.0022000157    9    5    1    1
 -0.0115783092    9    5    2    1
 -0.0236769303    9    5    2    2
 -0.0312852294    9    5    3    1
 0.0096858113    9    5    3    2
 -0.0278768743    9    5    3    3
 0.056854908    9    5    4    1
 -0.0184791779    9    5    4    2
 -0.0397162316    9    5    4    3
 0.0401259406    9    5    4    4
 0.0004175124    9    5    5    1
 0.0027070554    9    5    5    2
 0.012651921    9    5    5    3
 -0.0236380576    9    5    5    4
 0.0023606303    9    5    5    5
 -3.95497e-05    9    5    6    1
 4.9182e-06    9    5    6    2
 0.002646953    9    5    6    3
 3.67607e-05    9    5    6    4
 0.0010457094    9    5    6    5
 -0.0273380799    9    5    6    6
 -0.0020326797    9    5    7    1
 0.0017408633    9    5    7    2
 0.0027243681    9    5    7    3
 -0.009843024400000001    9    5    7    4
 0.03893695    9    5    7    5
 0.001934459    9    5    7    6
 -0.0090905394    9    5    7    7
 -6.51399e-05    9    5    8    1
 -3.84484e-05    9    5    8    2
 -0.0115926457    9    5    8    3
 -0.0039250938    9    5    8    4
 -0.0015833265    9    5    8    5
 -0.0006430819    9    5    8    6
 -0.0016790995    9    5    8    7
 -0.0161750256    9    5    8    8
 -0.0006259862    9    5    9    1
 0.0005781657    9    5    9    2
 0.0028168398    9    5    9    3
 -0.0073647028    9    5    9    4
 0.0471262138    9    5    9    5
 -0.0005324331000000001    9    6    1    1
 -0.000146941    9    6    2    1