 &FCI NORB=  24,NELEC=24,MS2=0,
  ORBSYM=1,1,1,1,1,1,1,1,1,1,1,1,1,1,1,1,1,1,1,1,1,1,1,1,
  ISYM=1,
 &END
 0.7134686227022989    1    1    1    1
 -0.09415704996553288    2    1    1    1
 0.0354874959878379    2    1    2    1
 0.2228562920622993    2    2    1    1
 0.09046312871560473    2    2    2    1
 0.697045942620053    2    2    2    2
 -0.01985463325076973    3    1    1    1
 0.004707650315468787    3    1    2    1
 0.004697102290466933    3    1    2    2
 0.001085528028826107    3    1    3    1
 0.005617247678314872    3    2    1    1
 0.005699286000493516    3    2    2    1
 0.03485888477081352    3    2    2    2
 -0.0005990101325949896    3    2    3    1
 0.006098562326861717    3    2    3    2
 0.1728495269053514    3    3    1    1
 -0.00442814646619229    3    3    2    1
 0.1557781788882757    3    3    2    2
 0.01067461457310454    3    3    3    1
 -0.04564193641375439    3    3    3    2
 0.7322281178097015    3    3    3    3
 0.003594106312976111    4    1    1    1
 -0.003110892410379631    4    1    2    1
 -0.008354611800376452    4    1    2    2
 -0.002501629115580703    4    1    3    1
 0.001129439918567888    4    1    3    2
 -0.02043867489451481    4    1    3    3
 0.1299163524560195    4    1    4    1
 -0.0103939139535896    4    2    1    1
 0.002250288346108952    4    2    2    1
 0.004820864075433833    4    2    2    2
 0.000576734301911388    4    2    3    1
 -0.0002268864423999823    4    2    3    2
 -0.001754711461090934    4    2    3    3
 -0.02175633230723356    4    2    4    1
 0.01475411735635655    4    2    4    2
 -0.009069146422493528    4    3    1    1
 0.001171601427606286    4    3    2    1
 -0.002568862655893252    4    3    2    2
 0.0005915758667791923    4    3    3    1
 -0.001899114005526597    4    3    3    2
 0.02061130393250664    4    3    3    3
 -0.003939986318235742    4    3    4    1
 0.001360044767485861    4    3    4    2
 0.002394390242300755    4    3    4    3
 0.6115599939275347    4    4    1    1
 -0.07286068892486834    4    4    2    1
 0.2310860991937391    4    4    2    2
 -0.01542095932218363    4    4    3    1
 0.004920371226273007    4    4    3    2
 0.181427874182924    4    4    3    3
 0.004140245942347011    4    4    4    1
 -0.009209904056400176    4    4    4    2
 -0.008653514499192511    4    4    4    3
 0.5736463685898697    4    4    4    4
 0.01130543354592153    5    1    1    1
 -0.005247179137568795    5    1    2    1
 -0.010430796203739    5    1    2    2
 -8.932462546096176e-05    5    1    3    1
 -0.001418158329501279    5    1    3    2
 0.004498544661922657    5    1    3    3
 -0.03419394181196884    5    1    4    1
 0.01356894780982433    5    1    4    2
 0.001373173166901045    5    1    4    3
 0.006515490066664384    5    1    4    4
 0.0234846766524864    5    1    5    1
 -0.02950118380226983    5    2    1    1
 0.003621956455386651    5    2    2    1
 0.002212311648160653    5    2    2    2
 0.0001204031939523717    5    2    3    1
 -0.001063888121402463    5    2    3    2
 -0.01294486775433791    5    2    3    3
 0.01547063935443962    5    2    4    1
 0.03323814553109676    5    2    4    2
 0.002334631913603248    5    2    4    3
 -0.02484714240938087    5    2    4    4
 0.01980112068480521    5    2    5    1
 0.1188481260565385    5    2    5    2
 -0.0001339685727878355    5    3    1    1
 -0.001371732148892115    5    3    2    1
 -0.00656171850258238    5    3    2    2
 -3.451074212957787e-05    5    3    3    1
 -0.0006986745091937153    5    3    3    2
 0.00205511800975243    5    3    3    3
 0.001343507759519838    5    3    4    1
 0.001880717369938208    5    3    4    2
 -0.0002591054923963106    5    3    4    3
 0.0001295911587325175    5    3    4    4
 0.001155048982837169    5    3    5    1
 0.007065167817195857    5    3    5    2
 0.0008662637744823064    5    3    5    3
 -0.1112605519447059    5    4    1    1
 0.04293743916430662    5    4    2    1
 0.1116350578585414    5    4    2    2
 0.005368536961066254    5    4    3    1
 0.007421230905007069    5    4    3    2
 -0.009324362019553292    5    4    3    3
 0.002149946020136549    5    4    4    1
 0.002127519196689388    5    4    4    2
 0.001575186547740733    5    4    4    3
 -0.09720792028212705    5    4    4    4
 -0.007838104830500516    5    4    5    1
 0.006936419313051239    5    4    5    2
 -0.001904090464006619    5    4    5    3
 0.06101483420633587    5    4    5    4
 0.2709140890873018    5    5    1    1
 0.05908342494123035    5    5    2    1
 0.5764125713074573    5    5    2    2
 0.001534648705046994    5    5    3    1
 0.02739051254049725    5    5    3    2
 0.157334501061787    5    5    3    3
 -0.01241306650701317    5    5    4    1
 0.002506644360738884    5    5    4    2
 -0.003358887159691336    5    5    4    3
 0.2719356262092769    5    5    4    4
 -0.009477939182953993    5    5    5    1
 -0.00467489301622886    5    5    5    2
 -0.005698502185263792    5    5    5    3
 0.08244377284118624    5    5    5    4
 0.5308178030044636    5    5    5    5
 -0.00495124742979435    6    1    1    1
 0.004374418335335355    6    1    2    1
 0.01035324619434499    6    1    2    2
 0.0001607741432249384    6    1    3    1
 0.0007472467785979471    6    1    3    2
 -0.003673595130827664    6    1    3    3
 -0.01525392835850849    6    1    4    1
 0.002581849523152355    6    1    4    2
 0.0009481275206035731    6    1    4    3
 -0.0003991998894244551    6    1    4    4
 -0.012200321767757    6    1    5    1
 0.002258829495292554    6    1    5    2
 0.0001374634619938241    6    1    5    3
 0.004244698298363791    6    1    5    4
 0.0129411617509415    6    1    5    5
 0.04726802550359418    6    1    6    1
 0.006184930417800178    6    2    1    1
 -0.003302870842381723    6    2    2    1
 -0.009710811346001609    6    2    2    2
 -0.0006873032713421187    6    2    3    1
 -0.001183139864230164    6    2    3    2
 -0.007404155926924631    6    2    3    3
 0.003824543051348741    6    2    4    1
 0.004182557095247896    6    2    4    2
 -0.0005615660679056192    6    2    4    3
 0.004062433654991772    6    2    4    4
 0.005405092566949843    6    2    5    1
 0.01792129169390242    6    2    5    2
 0.001339870794943951    6    2    5    3
 -0.003823295586219523    6    2    5    4
 -0.008326610026618541    6    2    5    5
 -0.005116286479987415    6    2    6    1
 0.01636422624915878    6    2    6    2
 -0.005252933584584922    6    3    1    1
 0.0005810659759104328    6    3    2    1
 -0.001439552446671191    6    3    2    2
 0.0009400882574961278    6    3    3    1
 -0.004975694344148923    6    3    3    2
 0.06196433096530023    6    3    3    3
 0.002132590312061672    6    3    4    1
 -0.0006606581061011546    6    3    4    2
 0.00730457913841388    6    3    4    3
 -0.005484778931458074    6    3    4    4
 -0.000265625689005992    6    3    5    1
 0.001315287621928898    6    3    5    2
 -0.0008170296111529497    6    3    5    3
 0.001641592248114615    6    3    5    4
 -0.002096717594297574    6    3    5    5
 1.600512111954949e-05    6    3    6    1
 -0.0020582195742873    6    3    6    2
 0.0382326396300473    6    3    6    3
 -0.05264261641048388    6    4    1    1
 0.01140601335763617    6    4    2    1
 0.008267150905722343    6    4    2    2
 0.003032229314960855    6    4    3    1
 -0.002353308100751425    6    4    3    2
 0.03244960703554182    6    4    3    3
 -0.009380793589660492    6    4    4    1
 0.003338453050913447    6    4    4    2
 0.001126824316144435    6    4    4    3
 -0.04686600282910566    6    4    4    4
 0.002769995743247237    6    4    5    1
 0.002764059248532911    6    4    5    2
 0.0002693235840253176    6    4    5    3
 0.009792105888471543    6    4    5    4
 0.003633334237460358    6    4    5    5
 -0.002339123514411471    6    4    6    1
 -0.0005517041789016394    6    4    6    2
 -0.001223101799807994    6    4    6    3
 0.02520132130447914    6    4    6    4
 -0.05248257023345501    6    5    1    1
 0.01988780552562922    6    5    2    1
 0.05389652765522929    6    5    2    2
 0.002432875823704998    6    5    3    1
 0.003886979493807164    6    5    3    2
 -0.007877512443816334    6    5    3    3
 0.002398787750426544    6    5    4    1
 0.002066873398561752    6    5    4    2
 0.0008369537052906531    6    5    4    3
 -0.03925654853514405    6    5    4    4
 0.0002939694713950023    6    5    5    1
 0.006591803643429077    6    5    5    2
 -0.0010972191810665    6    5    5    3
 0.0261914514292632    6    5    5    4
 0.03742475069874625    6    5    5    5
 -0.005146760562164022    6    5    6    1
 -0.001557618250497306    6    5    6    2
 0.002039785922976674    6    5    6    3
 0.003675626499131987    6    5    6    4
 0.0206830594555933    6    5    6    5
 0.3716689075064235    6    6    1    1
 -0.02607488835080615    6    6    2    1
 0.2342313827281359    6    6    2    2
 -0.002936271177595439    6    6    3    1
 -0.008727511608981388    6    6    3    2
 0.3443389486317186    6    6    3    3
 -0.01284791816443894    6    6    4    1
 -0.003504166996404345    6    6    4    2
 -0.001936364845939559    6    6    4    3
 0.3421575498999801    6    6    4    4
 -0.002061592910141551    6    6    5    1
 -0.0178449124510814    6    6    5    2
 0.001114312742943083    6    6    5    3
 -0.03195829064353782    6    6    5    4
 0.2448626344539543    6    6    5    5
 0.01816242023361356    6    6    6    1
 -0.005064231873718526    6    6    6    2
 -0.01494393222222117    6    6    6    3
 -0.00436675357915215    6    6    6    4
 -0.0232385896152342    6    6    6    5
 0.370708778695912    6    6    6    6
 0.01656625210282971    7    1    1    1
 -0.006016973731826631    7    1    2    1
 -0.008306424780510331    7    1    2    2
 -0.0003802629687752999    7    1    3    1
 -0.0004766085373858528    7    1    3    2
 0.003653013073852452    7    1    3    3
 -0.008729365210095916    7    1    4    1
 0.001654386269823    7    1    4    2
 0.0001139755688966792    7    1    4    3
 0.008631166609699405    7    1    4    4
 0.01782639282130505    7    1    5    1
 -0.004023641722318158    7    1    5    2
 -0.00045737047121622    7    1    5    3
 -0.00667366681637729    7    1    5    4
 -0.008753090862830831    7    1    5    5
 -0.03691236741568878    7    1    6    1
 0.002631353145522078    7    1    6    2
 0.001258720557934513    7    1    6    3
 0.001086329673375716    7    1    6    4
 0.003277142999481854    7    1    6    5
 -0.01157041720487263    7    1    6    6
 0.03393538048826597    7    1    7    1
 -0.008489133362360447    7    2    1    1
 0.002435304580174409    7    2    2    1
 0.003329661899890759    7    2    2    2
 0.0006575635147792022    7    2    3    1
 0.001911703271188263    7    2    3    2
 -0.0006876540776945326    7    2    3    3
 0.0003158896531465214    7    2    4    1
 -0.004814427734761591    7    2    4    2
 -0.0006880128454304397    7    2    4    3
 -0.005675654442073089    7    2    4    4
 -0.006128359901139523    7    2    5    1
 -0.01803529284153218    7    2    5    2
 -0.001079912493138517    7    2    5    3
 0.003004190020423357    7    2    5    4
 0.003595178028976697    7    2    5    5
 0.001992688029401338    7    2    6    1
 -0.01946460636234449    7    2    6    2
 -0.004214662278444899    7    2    6    3
 0.000857000932600884    7    2    6    4
 0.001290564500200036    7    2    6    5
 0.006574327986333886    7    2    6    6
 -0.0008015554941960717    7    2    7    1
 0.02574668347161579    7    2    7    2
 -0.004311614969283533    7    3    1    1
 0.002937427455093853    7    3    2    1
 0.01126984664727461    7    3    2    2
 0.0009030170723255159    7    3    3    1
 -0.00320150999233352    7    3    3    2
 0.05282988589027778    7    3    3    3
 0.001626369287469663    7    3    4    1
 -0.001082994415937374    7    3    4    2
 0.007341718084794716    7    3    4    3
 -0.004038899969736924    7    3    4    4
 -0.00202036108622678    7    3    5    1
 -0.00072322691731116    7    3    5    2
 -0.001395649013703585    7    3    5    3
 0.004480020299583448    7    3    5    4
 0.008509415502112195    7    3    5    5
 0.003010966533825645    7    3    6    1
 -0.005530993355283906    7    3    6    2
 0.03899457869795232    7    3    6    3
 -0.001619743916179508    7    3    6    4
 0.003338735213891904    7    3    6    5
 -0.01608333168432978    7    3    6    6
 -0.0008541137927045764    7    3    7    1
 -0.0003698195653683758    7    3    7    2
 0.04136144158439268    7    3    7    3
 -0.02638275621860522    7    4    1    1
 0.001903740816941444    7    4    2    1
 -0.01701908947475899    7    4    2    2
 0.001302057286433385    7    4    3    1
 -0.003472969141042125    7    4    3    2
 0.02915742783423358    7    4    3    3
 0.003968792192655576    7    4    4    1
 -0.001565035342513738    7    4    4    2
 0.000768598506918562    7    4    4    3
 -0.02251156712828799    7    4    4    4
 -0.002445248544135883    7    4    5    1
 -0.001094641283262428    7    4    5    2
 0.0004486890474203092    7    4    5    3
 0.006114330282723932    7    4    5    4
 -0.01936522048159018    7    4    5    5
 -0.0004909132145270222    7    4    6    1
 -0.0001960305662320053    7    4    6    2
 -0.0004683344724209564    7    4    6    3
 -0.006807508067389916    7    4    6    4
 0.000740920986005491    7    4    6    5
 0.007023493709917619    7    4    6    6
 -0.001082993538762817    7    4    7    1
 0.0009834889675347772    7    4    7    2
 -0.001893238947303653    7    4    7    3
 0.01430505955488993    7    4    7    4
 0.06906453059278898    7    5    1    1
 -0.02282976189021563    7    5    2    1
 -0.05293789217355098    7    5    2    2
 -0.003331794353173558    7    5    3    1
 -0.002819978431455711    7    5    3    2
 -0.002707649370660899    7    5    3    3
 -0.001641654003544814    7    5    4    1
 -0.002894205692843752    7    5    4    2
 -0.0007570556778464437    7    5    4    3
 0.05355441451977468    7    5    4    4
 -0.000258279721128146    7    5    5    1
 -0.00875701634164118    7    5    5    2
 0.0008928149769446521    7    5    5    3
 -0.0299742493879478    7    5    5    4
 -0.0349285823532335    7    5    5    5
 0.005034064454556291    7    5    6    1
 0.001244373073360982    7    5    6    2
 0.0001848529823668696    7    5    6    3
 -0.007494378563382345    7    5    6    4
 -0.02253426109571962    7    5    6    5
 0.02067735570205344    7    5    6    6
 -0.002392043791149241    7    5    7    1
 -0.001386374694768017    7    5    7    2
 -0.00085439586917972    7    5    7    3
 -0.002511078417732044    7    5    7    4
 0.02671923187175917    7    5    7    5
 -0.1504266784424904    7    6    1    1
 0.007709496731335057    7    6    2    1
 -0.1053633408209277    7    6    2    2
 0.008451200072543871    7    6    3    1
 -0.0230115324541239    7    6    3    2
 0.189854001176387    7    6    3    3
 -0.00895523236867408    7    6    4    1
 0.002658686886692254    7    6    4    2
 0.00431087958789121    7    6    4    3
 -0.1189529267740704    7    6    4    4
 0.008536217107551496    7    6    5    1
 0.00333137241334113    7    6    5    2
 0.003098673259716309    7    6    5    3
 0.004432619575061463    7    6    5    4
 -0.1025737031500408    7    6    5    5
 -0.02137571967289392    7    6    6    1
 0.007450430297708869    7    6    6    2
 -0.01139735751455882    7    6    6    3
 0.03244840063646192    7    6    6    4
 0.003529230826919118    7    6    6    5
 0.02694524247081314    7    6    6    6
 0.01228762399305647    7    6    7    1
 -0.003751974238063525    7    6    7    2
 -0.0216022742963511    7    6    7    3
 0.02601817595628562    7    6    7    4
 -0.01507364154875813    7    6    7    5
 0.1924715477386738    7    6    7    6
 0.3154107609547303    7    7    1    1
 -0.009117947006550475    7    7    2    1
 0.2684412079163905    7    7    2    2
 0.000141283636476433    7    7    3    1
 -0.008213191529011159    7    7    3    2
 0.36409320616786    7    7    3    3
 -0.01425426853825201    7    7    4    1
 -0.001409379583452903    7    7    4    2
 -0.001228219792572273    7    7    4    3
 0.2959066678944347    7    7    4    4
 -0.0009019267514469913    7    7    5    1
 -0.01420968337142152    7    7    5    2
 0.0007854472002547841    7    7    5    3
 -0.01283288246779796    7    7    5    4
 0.2641469426839556    7    7    5    5
 0.01012341642326962    7    7    6    1
 -0.007319491326237678    7    7    6    2
 -0.01841880960172423    7    7    6    3
 0.009960630764698461    7    7    6    4
 -0.01285016526428847    7    7    6    5
 0.36076682422276    7    7    6    6
 -0.006541047042124085    7    7    7    1
 0.01056240052703623    7    7    7    2
 -0.01927961078066327    7    7    7    3
 0.006795486206130379    7    7    7    4
 0.00736273302089191    7    7    7    5
 0.05545688830092089    7    7    7    6
 0.36805889141813    7    7    7    7
 -0.003981294927736113    8    1    1    1
 0.0008410249860737799    8    1    2    1
 -0.001492982952431328    8    1    2    2
 -0.0002077457061826307    8    1    3    1
 0.0006921940499248707    8    1    3    2
 -0.005620980768810683    8    1    3    3
 -0.005404845337903775    8    1    4    1
 0.001749123773174262    8    1    4    2
 0.0005527438832956861    8    1    4    3
 0.0003464888036425438    8    1    4    4
 -0.005001855274394002    8    1    5    1
 0.003009930565032621    8    1    5    2
 0.0001444231528621268    8    1    5    3
 0.000119532502759269    8    1    5    4
 0.001293705198827424    8    1    5    5
 0.03480482228474926    8    1    6    1
 -0.009900993280038505    8    1    6    2
 -0.001322669876227905    8    1    6    3
 -0.001787410788875176    8    1    6    4
 -0.003316637590895065    8    1    6    5
 0.01501054109648152    8    1    6    6
 -0.02399366409098138    8    1    7    1
 0.009542318168604994    8    1    7    2
 0.001932537606947958    8    1    7    3
 -0.0007309615719010978    8    1    7    4
 0.003544369870913623    8    1    7    5
 -0.01718775450837175    8    1    7    6
 0.008706416634250997    8    1    7    7
 0.0440777109348422    8    1    8    1
 -0.007091042141248039    8    2    1    1
 -0.002151911370860726    8    2    2    1
 -0.01380230822756639    8    2    2    2
 0.0005530467689839092    8    2    3    1
 0.0007901589049297079    8    2    3    2
 0.00466203698235504    8    2    3    3
 0.00177830337059522    8    2    4    1
 0.004119693198689881    8    2    4    2
 0.0004167307589432697    8    2    4    3
 -0.00677576553449469    8    2    4    4
 0.004237066119892086    8    2    5    1
 0.01022139953650534    8    2    5    2
 0.0007633476994139386    8    2    5    3
 -0.0005524189990543172    8    2    5    4
 -0.008206875216565065    8    2    5    5
 -0.01267288374151972    8    2    6    1
 -0.022409741566036    8    2    6    2
 -0.0005887103480587601    8    2    6    3
 0.0009938651114452259    8    2    6    4
 0.00192621588096425    8    2    6    5
 -0.0002034277746747373    8    2    6    6
 0.01218346040893748    8    2    7    1
 0.03252598001093001    8    2    7    2
 0.003468419305730166    8    2    7    3
 0.001125875538766366    8    2    7    4
 -0.001901423975150043    8    2    7    5
 -0.001349288583597795    8    2    7    6
 0.006784797067452812    8    2    7    7
 0.00165720253538629    8    2    8    1
 0.06046288220773537    8    2    8    2
 -0.006293895913007211    8    3    1    1
 0.001661889070485391    8    3    2    1
 0.002853104507093549    8    3    2    2
 -0.0002774194915177877    8    3    3    1
 0.001471496025876521    8    3    3    2
 -0.01726382827481859    8    3    3    3
 0.001853264061848926    8    3    4    1
 0.0003415228105377765    8    3    4    2
 0.0005761456504143676    8    3    4    3
 -0.006284307769117856    8    3    4    4
 3.538353629328438e-05    8    3    5    1
 0.001949253278711149    8    3    5    2
 -0.001085598686967514    8    3    5    3
 0.002350502786667432    8    3    5    4
 0.0007536845274087753    8    3    5    5
 -0.001850867585662959    8    3    6    1
 -0.001138132132707791    8    3    6    2
 -0.007439305338476299    8    3    6    3
 -0.0001095191558090861    8    3    6    4
 0.001567092892493788    8    3    6    5
 -0.002216808083052917    8    3    6    6
 0.001221113641543252    8    3    7    1
 0.003060248070836064    8    3    7    2
 -0.006518861959629902    8    3    7    3
 -4.822582193553735e-05    8    3    7    4
 -0.001610564270476464    8    3    7    5
 0.001684282026424543    8    3    7    6
 0.0005721243476258934    8    3    7    7
 -0.0003737113348797391    8    3    8    1
 0.004109727432340926    8    3    8    2
 0.01089507595216538    8    3    8    3
 -0.01637912977136021    8    4    1    1
 0.006159640649885196    8    4    2    1
 0.01536581801717377    8    4    2    2
 0.001160830824228737    8    4    3    1
 0.0004562063030791108    8    4    3    2
 0.006499627948306753    8    4    3    3
 -0.004954938568396766    8    4    4    1
 0.0007830805445824735    8    4    4    2
 0.0001840065861838463    8    4    4    3
 -0.01499337848686693    8    4    4    4
 0.0001223692340955444    8    4    5    1
 -0.001680206021463045    8    4    5    2
 -6.887066571977634e-05    8    4    5    3
 0.005560246118910303    8    4    5    4
 0.01264474334630006    8    4    5    5
 -3.767629892427662e-05    8    4    6    1
 -0.001526361178590451    8    4    6    2
 -0.0001349461123751927    8    4    6    3
 0.01413296309572316    8    4    6    4
 -0.002075464935099538    8    4    6    5
 -0.004917540972031452    8    4    6    6
 -0.0002306597410538998    8    4    7    1
 0.00169180730844034    8    4    7    2
 0.0004411815260523568    8    4    7    3
 -0.006537546215777293    8    4    7    4
 0.001429604933897781    8    4    7    5
 0.004958390383489139    8    4    7    6
 0.002205939471142867    8    4    7    7
 -0.0001970009184727016    8    4    8    1
 0.001565051582186301    8    4    8    2
 -9.670713455491508e-05    8    4    8    3
 0.01534649568439143    8    4    8    4
 -0.01565935084422387    8    5    1    1
 0.0103205137412785    8    5    2    1
 0.03657389325481819    8    5    2    2
 0.0009374781212440844    8    5    3    1
 0.003009243257085228    8    5    3    2
 -0.007725777233973416    8    5    3    3
 9.485907532691699e-05    8    5    4    1
 -0.001637445331676212    8    5    4    2
 -4.684798180459108e-05    8    5    4    3
 -0.01055207631773653    8    5    4    4
 -0.002645701731232306    8    5    5    1
 -0.005780720383536278    8    5    5    2
 -0.000500872190732854    8    5    5    3
 0.01436368999918805    8    5    5    4
 0.02884188289912629    8    5    5    5
 -0.001422953497366323    8    5    6    1
 -0.001957991017796637    8    5    6    2
 -0.0003290459406162993    8    5    6    3
 -0.003431637563929415    8    5    6    4
 0.0001726337076993351    8    5    6    5
 -0.009526409868291162    8    5    6    6
 0.0007821648080097916    8    5    7    1
 0.002128896207131802    8    5    7    2
 0.0001786501584353361    8    5    7    3
 0.00460932564510263    8    5    7    4
 0.002544694803254441    8    5    7    5
 0.000475909553453445    8    5    7    6
 -0.005722352863022143    8    5    7    7
 -0.001853830489743463    8    5    8    1
 0.001294634465844927    8    5    8    2
 0.0007370988920709542    8    5    8    3
 0.003211564035349169    8    5    8    4
 0.0223376010858448    8    5    8    5
 0.14857466523096    8    6    1    1
 -0.04388098091220786    8    6    2    1
 -0.08390061335068    8    6    2    2
 -0.007555834239589648    8    6    3    1
 -0.002632518541976085    8    6    3    2
 -0.03297783093838254    8    6    3    3
 0.002718923047947922    8    6    4    1
 -0.004375957043650057    8    6    4    2
 -0.003016438736421471    8    6    4    3
 0.118134990579102    8    6    4    4
 -0.0003509045688274679    8    6    5    1
 -0.008180340874015811    8    6    5    2
 0.001227650641197685    8    6    5    3
 -0.05244427440598141    8    6    5    4
 -0.04509155940842648    8    6    5    5
 0.01655643210463285    8    6    6    1
 0.007649242137730016    8    6    6    2
 -0.0004733889528609452    8    6    6    3
 -0.02255089264765129    8    6    6    4
 -0.02985562671093855    8    6    6    5
 0.04032772425516679    8    6    6    6
 -0.009971282395310345    8    6    7    1
 -0.0106821981637732    8    6    7    2
 -0.001862131803579229    8    6    7    3
 -0.005403215374125128    8    6    7    4
 0.03471114189644454    8    6    7    5
 -0.05277499329334261    8    6    7    6
 0.005133085054159651    8    6    7    7
 0.01430939101520639    8    6    8    1
 -0.0184866457804799    8    6    8    2
 -0.005328514436964517    8    6    8    3
 -0.009949401442821913    8    6    8    4
 -0.01202435604012096    8    6    8    5
 0.08709827467413973    8    6    8    6
 -0.09900294271388929    8    7    1    1
 0.04423724511841765    8    7    2    1
 0.1344006708359575    8    7    2    2
 0.005008206965724312    8    7    3    1
 0.01176351301116773    8    7    3    2
 -0.03585061250296005    8    7    3    3
 -0.001416147263482355    8    7    4    1
 0.004258595208956535    8    7    4    2
 0.0006437268834472927    8    7    4    3
 -0.07615529637248486    8    7    4    4
 -0.001138791969779751    8    7    5    1
 0.007741109851848714    8    7    5    2
 -0.002101383983401518    8    7    5    3
 0.05395107196336017    8    7    5    4
 0.08959261328271288    8    7    5    5
 -0.01072520356987699    8    7    6    1
 -0.01094872422084237    8    7    6    2
 0.003038107405444784    8    7    6    3
 0.0107150896651455    8    7    6    4
 0.03074987977620856    8    7    6    5
 -0.05129846082651621    8    7    6    6
 0.007286911255422618    8    7    7    1
 0.01296935258577695    8    7    7    2
 0.008567014006616074    8    7    7    3
 -0.001715153365557523    8    7    7    4
 -0.03262097101538475    8    7    7    5
 -0.01460907087625067    8    7    7    6
 -0.02461803447449725    8    7    7    7
 -0.007859673742792892    8    7    8    1
 0.02068268106708601    8    7    8    2
 0.003348752557898685    8    7    8    3
 0.007403112630442581    8    7    8    4
 0.01515546451866299    8    7    8    5
 -0.06956780016028974    8    7    8    6
 0.0845826562820553    8    7    8    7
 0.3614417009084777    8    8    1    1
 0.01192258285312127    8    8    2    1
 0.4242361893635698    8    8    2    2
 -0.002968716579409399    8    8    3    1
 0.0151374435511536    8    8    3    2
 0.209940664450511    8    8    3    3
 -0.006549855385383425    8    8    4    1
 -0.0004715519637625335    8    8    4    2
 -0.002341405179692475    8    8    4    3
 0.3329367901627804    8    8    4    4
 -0.005449805737338182    8    8    5    1
 -0.009676433460500825    8    8    5    2
 -0.002654336458788737    8    8    5    3
 0.0164252312441582    8    8    5    4
 0.3844036141554802    8    8    5    5
 0.01970642550460127    8    8    6    1
 -0.02031066652477732    8    8    6    2
 -0.00145239682290907    8    8    6    3
 -0.01162122704830151    8    8    6    4
 0.003400788304853595    8    8    6    5
 0.2985662630469083    8    8    6    6
 -0.009691690215479417    8    8    7    1
 0.0209916217799588    8    8    7    2
 0.008403726912460744    8    8    7    3
 -0.01111367334488711    8    8    7    4
 0.001520630720373941    8    8    7    5
 -0.09509215687205472    8    8    7    6
 0.2974335157555249    8    8    7    7
 0.02320514441360502    8    8    8    1
 0.02019401976546368    8    8    8    2
 0.0008665990381867439    8    8    8    3
 0.003543595350591592    8    8    8    4
 0.0125119998974087    8    8    8    5
 0.004663999882613392    8    8    8    6
 0.0353068961440516    8    8    8    7
 0.3979289875437629    8    8    8    8
 -0.002814581743477327    9    1    1    1
 -0.002846982174262615    9    1    2    1
 -0.009114848174719383    9    1    2    2
 -0.0005572562533201881    9    1    3    1
 -0.0002380178038366341    9    1    3    2
 -0.006682813055345104    9    1    3    3
 0.003782679299329722    9    1    4    1
 -0.0003413758622726467    9    1    4    2
 -4.112188378562449e-05    9    1    4    3
 -0.001838090733480038    9    1    4    4
 0.01743486872512244    9    1    5    1
 -0.002009653529179136    9    1    5    2
 -0.0005243136249046119    9    1    5    3
 -0.004241702323771308    9    1    5    4
 -0.01306324080002853    9    1    5    5
 -0.01185353339253485    9    1    6    1
 0.004035698575987869    9    1    6    2
 -1.089982400122592e-05    9    1    6    3
 0.0008485846995370635    9    1    6    4
 0.003315188532020124    9    1    6    5
 -0.009308493559909408    9    1    6    6
 0.01809645757931966    9    1    7    1
 -0.005974538434611369    9    1    7    2
 -0.001691270431958102    9    1    7    3
 -0.001244085153102502    9    1    7    4
 -0.002370467241891275    9    1    7    5
 0.006171816750777047    9    1    7    6
 -0.01025817578970076    9    1    7    7
 0.0271880914712556    9    1    8    1
 -0.01032483414704789    9    1    8    2
 -0.0008339335856473412    9    1    8    3
 -0.0006638742971294689    9    1    8    4
 0.0001321995468245487    9    1    8    5
 0.00621710484942678    9    1    8    6
 -0.004413210308246662    9    1    8    7
 -0.001632504757757045    9    1    8    8
 0.1005788616743504    9    1    9    1
 0.002823958078632804    9    2    1    1
 0.005030231916770283    9    2    2    1
 0.02402354575628495    9    2    2    2
 0.0002348937152566679    9    2    3    1
 0.0008844386213983727    9    2    3    2
 -3.862684120688956e-05    9    2    3    3
 -0.002362910763912199    9    2    4    1