 &FCI NORB=  12,NELEC= 12,MS2=0,
  ORBSYM=1,1,1,1,1,1,1,1,1,1,1,1,
  ISYM=1,
 &END
 3.503517167720576    1    1    1    1
 -0.2886268313928912    2    1    1    1
 0.03766423432368325    2    1    2    1
 0.7293340267697329    2    2    1    1
 -0.007048431952159586    2    2    2    1
 0.5736455688104377    2    2    2    2
 0.03251847466443121    3    1    1    1
 -0.003295655606503234    3    1    2    1
 0.004711976249667003    3    1    2    2
 0.007845737122311238    3    1    3    1
 -0.002595636952042049    3    2    1    1
 0.00240890687984901    3    2    2    1
 0.04016417862248847    3    2    2    2
 0.01474373731709718    3    2    3    1
 0.1560720169830259    3    2    3    2
 0.6516679220155639    3    3    1    1
 -0.003055471607771126    3    3    2    1
 0.5463472619079081    3    3    2    2
 -0.00270902073392971    3    3    3    1
 -0.02616436132066382    3    3    3    2
 0.5877182065698473    3    3    3    3
 -0.06057059361782931    4    1    1    1
 0.006176080541363502    4    1    2    1
 -0.0076668809621434    4    1    2    2
 -0.0006153904909737377    4    1    3    1
 0.0007918104678489331    4    1    3    2
 -0.004141152924903488    4    1    3    3
 0.008225079277937145    4    1    4    1
 0.01032852782288777    4    2    1    1
 -0.003640270807573412    4    2    2    1
 -0.0404535237700974    4    2    2    2
 0.0008872456316354543    4    2    3    1
 0.006751444822516795    4    2    3    2
 -0.03336730852731552    4    2    3    3
 0.009561964487711235    4    2    4    1
 0.06990389922349725    4    2    4    2
 0.004422378316869089    4    3    1    1
 0.0005960315071525239    4    3    2    1
 0.009645814643925105    4    3    2    2
 0.0007470011747256031    4    3    3    1
 -0.01104095591510128    4    3    3    2
 0.01369003462147355    4    3    3    3
 -0.0013685884306372    4    3    4    1
 -0.008458083902576633    4    3    4    2
 0.02499476010803975    4    3    4    3
 0.5707575029559908    4    4    1    1
 -0.004679506268089549    4    4    2    1
 0.4436900429826425    4    4    2    2
 0.0004948158936287993    4    4    3    1
 0.0004144928031501469    4    4    3    2
 0.4285281733457498    4    4    3    3
 0.003751919155083617    4    4    4    1
 0.02470649091755299    4    4    4    2
 -0.001558012643026235    4    4    4    3
 0.4504622301939303    4    4    4    4
 0.03046948135350193    5    1    1    1
 -0.00301936877498054    5    1    2    1
 0.004185388942839104    5    1    2    2
 0.0007917052421975795    5    1    3    1
 0.0006893800975782328    5    1    3    2
 0.00223774834860741    5    1    3    3
 -0.00428802492168094    5    1    4    1
 -0.004717747611104026    5    1    4    2
 0.0008142368538923725    5    1    4    3
 -0.002182242656437371    5    1    4    4
 0.002279014614020402    5    1    5    1
 0.002019501824295127    5    2    1    1
 0.001774006959035814    5    2    2    1
 0.02614394551924477    5    2    2    2
 0.0007511882757954345    5    2    3    1
 0.01075519838574014    5    2    3    2
 0.03212177647237664    5    2    3    3
 -0.004073299493977466    5    2    4    1
 -0.02308169079492146    5    2    4    2
 0.006807123493816471    5    2    4    3
 -0.01861983559118783    5    2    4    4
 0.002297494570830468    5    2    5    1
 0.02140164163266978    5    2    5    2
 0.01659916988809028    5    3    1    1
 -0.0001647499666777312    5    3    2    1
 0.01582748066168633    5    3    2    2
 0.002852028377963369    5    3    3    1
 0.05055901322294672    5    3    3    2
 -0.00937149034808521    5    3    3    3
 0.001052496486540274    5    3    4    1
 0.01079523063775474    5    3    4    2
 -0.002675153154037716    5    3    4    3
 0.01163681391121102    5    3    4    4
 -0.0002963184393854272    5    3    5    1
 0.0004450791937446111    5    3    5    2
 0.03006082516722454    5    3    5    3
 -0.1375449568921989    5    4    1    1
 0.003303887483892703    5    4    2    1
 -0.04561896379441764    5    4    2    2
 0.0005302795712571781    5    4    3    1
 0.01259830384925132    5    4    3    2
 -0.03408157926107114    5    4    3    3
 -0.004720505352113442    5    4    4    1
 -0.0466513948168848    5    4    4    2
 0.008422697642360115    5    4    4    3
 -0.09180960349971563    5    4    4    4
 0.002607534740687504    5    4    5    1
 0.02704106709960757    5    4    5    2
 -0.00650826033973613    5    4    5    3
 0.08741137777628311    5    4    5    4
 0.3941822814303665    5    5    1    1
 -0.001696342620526197    5    5    2    1
 0.3593808696854302    5    5    2    2
 0.0003398326227022537    5    5    3    1
 0.007367180875942032    5    5    3    2
 0.366859148755208    5    5    3    3
 0.002161226295940912    5    5    4    1
 0.01489725989911523    5    5    4    2
 -0.001998455374168836    5    5    4    3
 0.3634644420028778    5    5    4    4
 -0.001096812161945519    5    5    5    1
 -0.002901902705602037    5    5    5    2
 0.006957381580412479    5    5    5    3
 -0.03458014775086742    5    5    5    4
 0.3405207035984293    5    5    5    5
 -0.008178854506639041    6    1    1    1
 0.0008954929410319312    6    1    2    1
 -0.0008089758987980972    6    1    2    2
 -0.0001668257062485938    6    1    3    1
 -8.144690481011191e-06    6    1    3    2
 -0.0002836399310783663    6    1    3    3
 0.0001531143885198406    6    1    4    1
 -0.0001492438470539204    6    1    4    2
 -4.946088206752382e-05    6    1    4    3
 -0.0003056926880069086    6    1    4    4
 -0.0001104790185853061    6    1    5    1
 8.993135558836331e-06    6    1    5    2
 -7.139502709728752e-05    6    1    5    3
 9.214547598191062e-05    6    1    5    4
 -0.0001904046868788856    6    1    5    5
 0.008667345657078865    6    1    6    1
 0.003761530211607251    6    2    1    1
 -0.0003849839225437388    6    2    2    1
 -0.00151609348916845    6    2    2    2
 4.499275986092114e-05    6    2    3    1
 0.001028910615439381    6    2    3    2
 -5.388999871066489e-05    6    2    3    3
 -0.0001580941633589181    6    2    4    1
 -0.000512473259378591    6    2    4    2
 -0.0009685534242529534    6    2    4    3
 -0.0002530611789481712    6    2    4    4
 3.746202692416464e-05    6    2    5    1
 -0.0002086515016235438    6    2    5    2
 -0.0004350141356190508    6    2    5    3
 -0.0004870455820816303    6    2    5    4
 -0.0008141314344822315    6    2    5    5
 0.0111143026316818    6    2    6    1
 0.06377421311976449    6    2    6    2
 -0.001968706950478626    6    3    1    1
 0.0001312178549795586    6    3    2    1
 0.0005582112292524784    6    3    2    2
 0.0002816115888213279    6    3    3    1
 0.001395488681825986    6    3    3    2
 -0.0005187365977022304    6    3    3    3
 -4.081996059322088e-05    6    3    4    1
 -0.001072578540159476    6    3    4    2
 8.088283490830624e-05    6    3    4    3
 -0.0003042717044829936    6    3    4    4
 2.990632150920662e-05    6    3    5    1
 -0.000222893071684571    6    3    5    2
 0.0004531932221539326    6    3    5    3
 0.0004468850636605037    6    3    5    4
 -0.0007715019347869502    6    3    5    5
 -0.001023827574757877    6    3    6    1
 7.994710652533486e-05    6    3    6    2
 0.03230491631231176    6    3    6    3
 -0.000313743784855132    6    4    1    1
 -0.0001285526804125671    6    4    2    1
 -0.001746094778484586    6    4    2    2
 -0.0001578481355580834    6    4    3    1
 -0.002978958191081099    6    4    3    2
 -0.0002183529273029953    6    4    3    3
 0.0001643410923856535    6    4    4    1
 0.000295404971150295    6    4    4    2
 0.0002562526909228761    6    4    4    3
 -0.0002614748882224738    6    4    4    4
 -0.0001094602146732193    6    4    5    1
 -0.0005273019723470264    6    4    5    2
 -0.0009892205853829492    6    4    5    3
 -0.0006144180373704306    6    4    5    4
 -0.0005813373303798838    6    4    5    5
 0.001771421985029233    6    4    6    1
 0.002156065007025699    6    4    6    2
 0.0007532443262262126    6    4    6    3
 0.01332538226705713    6    4    6    4
 -0.001614416385163964    6    5    1    1
 4.875681234436225e-05    6    5    2    1
 -0.001502181686756963    6    5    2    2
 -0.0001476272840322271    6    5    3    1
 -0.00297978494807197    6    5    3    2
 -5.360774305643999e-05    6    5    3    3
 -0.0001073307820273736    6    5    4    1
 -0.000650699032944797    6    5    4    2
 0.0001641449254563272    6    5    4    3
 -0.00102187472499487    6    5    4    4
 4.191469457099124e-05    6    5    5    1
 -0.0002029488159802992    6    5    5    2
 -0.00160007452045075    6    5    5    3
 6.336628279883526e-05    6    5    5    4
 -0.000911021640370354    6    5    5    5
 -0.0005067146682205309    6    5    6    1
 0.004471857428628507    6    5    6    2
 0.0009894567690935277    6    5    6    3
 -0.002023971366075689    6    5    6    4
 0.008801311403815647    6    5    6    5
 0.5796654721053676    6    6    1    1
 -0.003270191642819954    6    6    2    1
 0.4727001269470837    6    6    2    2
 0.001112357234172089    6    6    3    1
 0.01332676846015336    6    6    3    2
 0.4617301817047413    6    6    3    3
 -0.002645569785149354    6    6    4    1
 -0.02188927810490439    6    6    4    2
 0.006948406382386141    6    6    4    3
 0.3836310584381021    6    6    4    4
 0.00140441213100453    6    6    5    1
 0.016484881472142    6    6    5    2
 0.006863501739214719    6    6    5    3
 -0.02642221933750053    6    6    5    4
 0.3310951886129906    6    6    5    5
 0.0002766994924540153    6    6    6    1
 0.001351655427901305    6    6    6    2
 -8.923161262694383e-06    6    6    6    3
 -0.0007345914666221132    6    6    6    4
 -0.001379063321878318    6    6    6    5
 0.4400573696553332    6    6    6    6
 -0.01440257491187207    7    1    1    1
 0.001646293319893935    7    1    2    1
 -0.001217215959146282    7    1    2    2
 -0.0001684804081850716    7    1    3    1
 0.0001203402652182018    7    1    3    2
 -0.0005293308464841778    7    1    3    3
 0.0004420005933200651    7    1    4    1
 -9.785102552747363e-06    7    1    4    2
 -4.735403504028747e-05    7    1    4    3
 -0.0003505981072652492    7    1    4    4
 -0.0002629762372620081    7    1    5    1
 -5.615163920592804e-05    7    1    5    2
 -5.933939237514082e-05    7    1    5    3
 4.85055151165471e-05    7    1    5    4
 -0.00021902299494766    7    1    5    5
 0.01134615780584799    7    1    6    1
 0.01352852464364916    7    1    6    2
 -0.001391552658306267    7    1    6    3
 0.002387113962169561    7    1    6    4
 -0.000835885764353822    7    1    6    5
 0.0002928008214685487    7    1    6    6
 0.01488999018126327    7    1    7    1
 0.007009852222987346    7    2    1    1
 -0.000550536268447594    7    2    2    1
 -0.0006441153502389738    7    2    2    2
 8.498761474583082e-05    7    2    3    1
 -0.0005028825485133489    7    2    3    2
 -0.0002154134889623955    7    2    3    3
 -8.769835130686042e-05    7    2    4    1
 0.0001217189058991492    7    2    4    2
 0.0003410728787915607    7    2    4    3
 9.078811110403634e-05    7    2    4    4
 6.356237779160966e-06    7    2    5    1
 -0.0001607477601097678    7    2    5    2
 -0.0001699131909118349    7    2    5    3
 -0.0005735863851007808    7    2    5    4
 -0.0008767433181854617    7    2    5    5
 0.009996425907096084    7    2    6    1
 0.03364840338411599    7    2    6    2
 -0.00527389772104818    7    2    6    3
 0.007487846947379724    7    2    6    4
 -0.00413983557702751    7    2    6    5
 0.002454591891859483    7    2    6    6
 0.01262220592825461    7    2    7    1
 0.03657170024385781    7    2    7    2
 -0.0003797764835349073    7    3    1    1
 6.129236987259105e-05    7    3    2    1
 -0.0006550079446174067    7    3    2    2
 8.041304986295642e-05    7    3    3    1
 -0.002529626962471491    7    3    3    2
 0.0004728057805639507    7    3    3    3
 5.05177517719303e-05    7    3    4    1
 0.0006538371746432387    7    3    4    2
 0.0005724048111189034    7    3    4    3
 0.0001205350001210018    7    3    4    4
 -1.593838578182405e-05    7    3    5    1
 -0.0001006874833450377    7    3    5    2
 -0.001359239519356596    7    3    5    3
 -0.0005007218329333505    7    3    5    4
 0.0003176113062850793    7    3    5    5
 -0.001481628789566072    7    3    6    1
 -0.007048517638066626    7    3    6    2
 -0.00157755772620477    7    3    6    3
 -0.001213129375592241    7    3    6    4
 0.0004512568717274471    7    3    6    5
 -0.001077914596875518    7    3    6    6
 -0.001846825648698261    7    3    7    1
 -0.00326158577309203    7    3    7    2
 0.01373624804120739    7    3    7    3
 0.004185016570944906    7    4    1    1
 -0.0002061680200884429    7    4    2    1
 0.00192912995127525    7    4    2    2
 0.0001381431509402566    7    4    3    1
 0.002345367430044423    7    4    3    2
 0.001601196241847372    7    4    3    3
 0.0001463488855134852    7    4    4    1
 -0.0007371377101677304    7    4    4    2
 -5.745586905746346e-05    7    4    4    3
 0.000170451376294499    7    4    4    4
 -8.341144761078845e-05    7    4    5    1
 0.000571987667476373    7    4    5    2
 0.0006203120558706004    7    4    5    3
 0.001282984902484989    7    4    5    4
 1.552580307376584e-05    7    4    5    5
 0.003011935049124339    7    4    6    1
 0.01219964148376341    7    4    6    2
 -0.001551261884408853    7    4    6    3
 0.007998318100771428    7    4    6    4
 -0.006835885913247602    7    4    6    5
 0.002509735854832399    7    4    6    6
 0.00389500090482589    7    4    7    1
 0.009666790478667512    7    4    7    2
 -0.001501654911700527    7    4    7    3
 0.01454367667252468    7    4    7    4
 -0.002483662968248642    7    5    1    1
 0.000147657427780252    7    5    2    1
 -3.236927797400128e-05    7    5    2    2
 9.195230506220849e-05    7    5    3    1
 0.002147534141533042    7    5    3    2
 -0.002160173659548114    7    5    3    3
 -5.192471170378169e-05    7    5    4    1
 0.0007220249642957901    7    5    4    2
 -0.0003673713538403825    7    5    4    3
 0.001056399628006007    7    5    4    4
 4.340936242195251e-05    7    5    5    1
 -0.0005979037853360393    7    5    5    2
 0.00138476216261755    7    5    5    3
 -0.0009271750755883276    7    5    5    4
 0.0008370309154253186    7    5    5    5
 -0.002004757403045899    7    5    6    1
 -0.01166208755716654    7    5    6    2
 0.00104513627591268    7    5    6    3
 -0.008453758207047246    7    5    6    4
 -0.003318416736690856    7    5    6    5
 -0.0008370378075678955    7    5    6    6
 -0.002477822487136005    7    5    7    1
 -0.005443109546915138    7    5    7    2
 0.001702968382840575    7    5    7    3
 -0.005053004238494673    7    5    7    4
 0.0108366846670017    7    5    7    5
 0.2544374468174935    7    6    1    1
 -0.005376136716241911    7    6    2    1
 0.08121772584748657    7    6    2    2
 -6.805491984225951e-05    7    6    3    1
 -0.01280625355255389    7    6    3    2
 0.05468705377992315    7    6    3    3
 0.0005198067848001559    7    6    4    1
 0.02414149471530459    7    6    4    2
 -0.002891589780010373    7    6    4    3
 0.07080524729370956    7    6    4    4
 -0.0003886409809837876    7    6    5    1
 -0.01289648017856907    7    6    5    2
 0.00340543890794599    7    6    5    3
 -0.05975905962821768    7    6    5    4
 0.01302627587048428    7    6    5    5
 0.000750061589454813    7    6    6    1
 0.004288435212117114    7    6    6    2
 -0.00151887585137048    7    6    6    3
 0.001114365808844641    7    6    6    4
 -0.0002222038833867999    7    6    6    5
 0.05382977333529779    7    6    6    6
 0.0009557076538039721    7    6    7    1
 0.005095343926244354    7    6    7    2
 0.0002064072594425856    7    6    7    3
 0.0009549185799446788    7    6    7    4
 -0.0010840666294633    7    6    7    5
 0.1162146154345712    7    6    7    6
 0.6501201706139041    7    7    1    1
 -0.006268275417544098    7    7    2    1
 0.4789371692484057    7    7    2    2
 0.0009524800139611077    7    7    3    1
 0.009395424698689437    7    7    3    2
 0.465789537191102    7    7    3    3
 -0.001686222446202069    7    7    4    1
 -0.01212069064684481    7    7    4    2
 0.005043455107591323    7    7    4    3
 0.3995034024203006    7    7    4    4
 0.0008427627523525704    7    7    5    1
 0.01083089364511211    7    7    5    2
 0.00754494795206446    7    7    5    3
 -0.03575714347715104    7    7    5    4
 0.3407690068163897    7    7    5    5
 0.001033473919308569    7    7    6    1
 0.005212274769477528    7    7    6    2
 -0.0002454202422842887    7    7    6    3
 7.503092480270277e-05    7    7    6    4
 -0.00143684873179829    7    7    6    5
 0.451275844968511    7    7    6    6
 0.001246799643824007    7    7    7    1
 0.005124056890631536    7    7    7    2
 -0.001376431194083115    7    7    7    3
 0.003829894344212263    7    7    7    4
 -0.001934205071023002    7    7    7    5
 0.06760652269015971    7    7    7    6
 0.4747141087321066    7    7    7    7
 -0.1870354206803416    8    1    1    1
 0.02340112566453794    8    1    2    1
 -0.009314879451541667    8    1    2    2
 -0.003511659882015399    8    1    3    1
 -0.0008801439496345083    8    1    3    2
 -0.00377117198220463    8    1    3    3
 0.00923381306251427    8    1    4    1
 0.004726105441050859    8    1    4    2
 -0.000850359901759717    8    1    4    3
 0.0003202948592570257    8    1    4    4
 -0.004803507104946387    8    1    5    1
 -0.002145011036685425    8    1    5    2
 0.0001591197848710817    8    1    5    3
 -0.001836528196433971    8    1    5    4
 0.0005678382188418588    8    1    5    5
 -0.0004071561678976375    8    1    6    1
 -0.001468880480730771    8    1    6    2
 8.978736937199233e-05    8    1    6    3
 -0.000114300437145534    8    1    6    4
 3.85217994044555e-05    8    1    6    5
 -0.003227478905033207    8    1    6    6
 -0.0001326302255857032    8    1    7    1
 -0.001414134185466745    8    1    7    2
 0.0002062772838492054    8    1    7    3
 -0.0003366925951060049    8    1    7    4
 0.0002229294752635125    8    1    7    5
 -0.001644108266784703    8    1    7    6
 -0.003773070103725604    8    1    7    7
 0.01899202085225458    8    1    8    1
 0.140789573906046    8    2    1    1
 -0.005979280142154546    8    2    2    1
 0.03772331980035589    8    2    2    2
 0.0005216622673533097    8    2    3    1
 -5.122828415759415e-05    8    2    3    2
 0.03253892605391234    8    2    3    3
 0.001405107784774373    8    2    4    1
 0.01332248945715271    8    2    4    2
 -0.001897683890022919    8    2    4    3
 0.02725807358275536    8    2    4    4
 -0.000698166619980452    8    2    5    1
 -0.002591964922027365    8    2    5    2
 0.001915869082016175    8    2    5    3
 -0.01598911496933736    8    2    5    4
 0.007725941766978059    8    2    5    5
 -0.001144475415074007    8    2    6    1
 -0.003174180036321206    8    2    6    2
 -0.0006405479057473134    8    2    6    3
 -0.0003222237484487013    8    2    6    4
 -0.0001547448705619992    8    2    6    5
 0.03254589091294249    8    2    6    6
 -0.001455430100526419    8    2    7    1
 -0.002032088813339539    8    2    7    2
 0.0006373525885772155    8    2    7    3
 1.146778633794721e-05    8    2    7    4
 -0.0001065935369412998    8    2    7    5
 0.03788320008109518    8    2    7    6
 0.04007276241355342    8    2    7    7
 -0.001663191906045618    8    2    8    1
 0.02202607569126682    8    2    8    2
 -0.0338177601490568    8    3    1    1
 0.001541433093286506    8    3    2    1
 -0.009532819136234797    8    3    2    2
 0.003329752142765971    8    3    3    1
 -0.00327627477347319    8    3    3    2
 -0.008654370183353039    8    3    3    3
 -0.0002313155382709762    8    3    4    1
 -0.003370508119196714    8    3    4    2
 0.009763780763910138    8    3    4    3
 -0.005780962907708138    8    3    4    4
 0.0003042493578736242    8    3    5    1
 -0.0001606927809338929    8    3    5    2
 -0.006968904480220731    8    3    5    3
 0.002897837795857499    8    3    5    4
 -0.003232207262351438    8    3    5    5
 5.109328256045125e-05    8    3    6    1
 -0.0007360552249691518    8    3    6    2
 -4.720466515896028e-05    8    3    6    3
 0.0005127395329379499    8    3    6    4
 0.0002634612325888429    8    3    6    5
 -0.008692236365191709    8    3    6    6
 0.0001451704037571577    8    3    7    1
 0.0003510115455943935    8    3    7    2
 2.156507570846063e-05    8    3    7    3
 -0.0004915093730962353    8    3    7    4
 -0.0001563304848258975    8    3    7    5
 -0.008132299148769858    8    3    7    6
 -0.01086965908254166    8    3    7    7
 -8.528860263087751e-05    8    3    8    1
 -0.005894810068962274    8    3    8    2
 0.01280676503532372    8    3    8    3
 0.1224636254079113    8    4    1    1
 -0.003548671308677729    8    4    2    1
 0.05278919284430865    8    4    2    2
 7.382561209861324e-05    8    4    3    1
 -0.00474614403138553    8    4    3    2
 0.05353695601946817    8    4    3    3
 0.00172803797799722    8    4    4    1
 -0.01141431654815754    8    4    4    2
 0.004434310822418908    8    4    4    3
 0.02070784277442744    8    4    4    4
 -0.001070570865111116    8    4    5    1
 0.006158607533352109    8    4    5    2
 -0.002878028999318012    8    4    5    3
 0.007803853924913885    8    4    5    4
 0.003079060434071784    8    4    5    5
 -0.0002814809588940158    8    4    6    1
 -0.0002314841366569523    8    4    6    2
 0.0001778416022360024    8    4    6    3
 -0.0002053607160980969    8    4    6    4
 0.0003595670983510362    8    4    6    5
 0.04397112082847696    8    4    6    6
 -0.0003555734326384786    8    4    7    1
 0.0004958899776333982    8    4    7    2
 -0.0001349735046289148    8    4    7    3
 0.001031860888212149    8    4    7    4
 -0.001253769768217235    8    4    7    5
 0.0192506259411475    8    4    7    6
 0.04837570521623765    8    4    7    7
 -0.0002855776936528619    8    4    8    1
 0.01830873370750005    8    4    8    2
 -0.003550835410241313    8    4    8    3
 0.0385207383817483    8    4    8    4
 -0.04663977695729971    8    5    1    1
 0.001787515136065962    8    5    2    1
 -0.01670619924686577    8    5    2    2
 -8.473563486048231e-05    8    5    3    1
 -0.003078538033240468    8    5    3    2
 -0.02179325878982855    8    5    3    3
 -0.000741499787750165    8    5    4    1
 0.009908281758099076    8    5    4    2
 -0.003394548120132455    8    5    4    3
 0.01144838587932562    8    5    4    4
 0.0004215950505601175    8    5    5    1
 -0.01162299948878627    8    5    5    2
 0.001227317978693503    8    5    5    3
 -0.02298216102122727    8    5    5    4
 0.005883131993834802    8    5    5    5
 0.0001086859208488256    8    5    6    1
 1.283862090303272e-05    8    5    6    2
 -0.0002212116812495642    8    5    6    3
 0.000438259264800288    8    5    6    4
 0.0002809749090731365    8    5    6    5
 -0.01900001255409348    8    5    6    6
 0.0001456614609770132    8    5    7    1
 -0.0003653205558367561    8    5    7    2
 0.0002627765741436648    8    5    7    3
 -0.001259712765110306    8    5    7    4
 0.00109002004825347    8    5    7    5
 0.001323269009511361    8    5    7    6
 -0.02140130224536153    8    5    7    7
 0.0002532956926174258    8    5    8    1
 -0.01009684051059162    8    5    8    2
 0.003411473411430337    8    5    8    3
 -0.02493959553212986    8    5    8    4
 0.02741885264746959    8    5    8    5
 -0.01893969364462014    8    6    1    1
 0.0001513755746503532    8    6    2    1
 -0.009101310741127844    8    6    2    2
 -0.000204385535251654    8    6    3    1
 -0.002587010288774558    8    6    3    2
 -0.005411014626351594    8    6    3    3
 9.138058581044386e-05    8    6    4    1
 -0.0007669795205826243    8    6    4    2
 0.0004227677011176867    8    6    4    3
 -0.005570535523529013    8    6    4    4
 -7.914890374125761e-05    8    6    5    1
 3.158408781076663e-05    8    6    5    2
 -0.00139191353092436    8    6    5    3
 0.002858004710779761    8    6    5    4
 -0.002203842988568579    8    6    5    5
 0.005571929028788187    8    6    6    1
 0.01548880155870746    8    6    6    2
 -0.001896487088249314    8    6    6    3
 0.006715206879557447    8    6    6    4
 -0.003807619664946491    8    6    6    5
 -0.005103118173637012    8    6    6    6
 0.007154754730112624    8    6    7    1
 0.01851275107943022    8    6    7    2
 -0.00330022706095282    8    6    7    3
 0.007809472207081215    8    6    7    4
 -0.003421711178543969    8    6    7    5
 -0.005094731795527629    8    6    7    6
 -0.00471439673717321    8    6    7    7
 -0.0004876599377961737    8    6    8    1
 -0.00409558082621374    8    6    8    2
 0.001255872525014087    8    6    8    3
 -0.001915741926905552    8    6    8    4
 0.0005454454244975901    8    6    8    5
 0.01270622385913853    8    6    8    6
 -0.02177035591987528    8    7    1    1
 5.8829641104649e-05    8    7    2    1
 -0.01340405872949089    8    7    2    2
 8.154022417579239e-05    8    7    3    1
 0.002437268444637768    8    7    3    2
 -0.01264390627680601    8    7    3    3
 0.0003107590554412657    8    7    4    1
 0.002017929466905219    8    7    4    2
 -0.001061522546078139    8    7    4    3
 -0.006868572698401294    8    7    4    4
 -0.0001772088187281351    8    7    5    1
 -0.001245481558254216    8    7    5    2
 0.0008402284084949829    8    7    5    3
 -3.160509989444759e-05    8    7    5    4
 -0.004391297898083311    8    7    5    5
 0.007461136076292131    8    7    6    1
 0.02924142034890178    8    7    6    2
 -0.004067966702913584    8    7    6    3
 0.006928974383511949    8    7    6    4
 -0.0006132468234473923    8    7    6    5
 -0.0107991602210931    8    7    6    6
 0.009402072594643311    8    7    7    1
 0.02057711319660004    8    7    7    2
 -0.003789616133849817    8    7    7    3
 0.01070028446465201    8    7    7    4
 -0.008489508067321827    8    7    7    5
 -0.001769008864239578    8    7    7    6
 -0.009656833687989183    8    7    7    7
 -0.0006222855943400071    8    7    8    1
 -0.004287954595245216    8    7    8    2
 8.695650479677492e-05    8    7    8    3
 -0.004132532757093525    8    7    8    4
 0.002464408249799188    8    7    8    5
 0.01224117312051281    8    7    8    6
 0.02055458766983329    8    7    8    7
 0.435742258706157    8    8    1    1
 -0.00651486467270452    8    8    2    1
 0.3163811676755991    8    8    2    2
 -0.0003145736574364633    8    8    3    1
 -0.005978787208179086    8    8    3    2
 0.3105865624078557    8    8    3    3
 0.003615890363075256    8    8    4    1
 0.02820322747350457    8    8    4    2
 -0.004072859899018296    8    8    4    3
 0.3317765075635842    8    8    4    4
 -0.002025012014379487    8    8    5    1
 -0.01592671755572555    8    8    5    2
 0.007380415869937792    8    8    5    3
 -0.06449598470830702    8    8    5    4
 0.2844356310368801    8    8    5    5
 -0.001791765319542179    8    8    6    1
 -0.007367880996610117    8    8    6    2
 0.0002637465182468095    8    8    6    3
 -0.001585782000852185    8    8    6    4
 -0.0002667499970143149    8    8    6    5
 0.2892602795447873    8    8    6    6
 -0.002214609816951998    8    8    7    1
 -0.004791321126717784    8    8    7    2
 0.0009686154916446215    8    8    7    3
 -0.002943524120391018    8    8    7    4
 0.003020542056015041    8    8    7    5
 0.05158587927576064    8    8    7    6
 0.3014999467890667    8    8    7    7
 -6.334960183807876e-05    8    8    8    1
 0.01812795962698975    8    8    8    2
 -0.004894266894038654    8    8    8    3
 0.003978128783515836    8    8    8    4
 0.01461914465447193    8    8    8    5
 -0.005445013831141025    8    8    8    6
 -0.007671916059524526    8    8    8    7
 0.2922686725975289    8    8    8    8
 -0.0833873585934531    9    1    1    1
 0.009848469012617536    9    1    2    1
 -0.005904680958320451    9    1    2    2
 -0.001849762426324192    9    1    3    1
 -0.0008496712321928235    9    1    3    2
 -0.002240454112508933    9    1    3    3
 0.006230102969062488    9    1    4    1
 0.004956553836269071    9    1    4    2
 -0.0007825550242093307    9    1    4    3
 0.001393927028757174    9    1    4    4
 -0.003275651283821796    9    1    5    1
 -0.00217032229023967    9    1    5    2
 0.0002622902277821117    9    1    5    3
 -0.002257557533744729    9    1    5    4
 0.0009629589430776376    9    1    5    5
 0.0005321047136122322    9    1    6    1
 0.0002024159348008976    9    1    6    2
 -6.911140145264231e-05    9    1    6    3
 0.0001692987222427775    9    1    6    4
 -6.194087420011844e-05    9    1    6    5
 -0.001870831344587955    9    1    6    6
 0.000914488544773538    9    1    7    1
 0.0001869801853807332    9    1    7    2
 -1.819342308573117e-05    9    1    7    3
 0.0001565322354762336    9    1    7    4
 -9.647267208438143e-05    9    1    7    5
 -0.0001512905603931639    9    1    7    6
 -0.001648930018271593    9    1    7    7
 0.009739223955080454    9    1    8    1
 -5.035042184647445e-05    9    1    8    2
 -0.0003198404105790769    9    1    8    3
 0.0005682261425138352    9    1    8    4
 -0.0001910147956959254    9    1    8    5
 0.0002623092464225102    9    1    8    6
 0.0004095607886329017    9    1    8    7
 0.00133374911580579    9    1    8    8
 0.005676521008959787    9    1    9    1
 0.04567229683637787    9    2    1    1
 -0.002914094673594679    9    2    2    1