 &FCI NORB=  18,NELEC=18,MS2=0,
  ORBSYM=1,1,1,1,1,1,1,1,1,1,1,1,1,1,1,1,1,1,
  ISYM=1,
 &END
 8.984167930684997    1    1    1    1
 -1.123889191221981    2    1    1    1
 0.233775603879626    2    1    2    1
 2.5764006699864    2    2    1    1
 -0.08049432189154279    2    2    2    1
 1.808873354070439    2    2    2    2
 -0.001430102368584343    3    1    1    1
 0.0001714886142843477    3    1    2    1
 -0.0003859503615850976    3    1    2    2
 0.09787666588177325    3    1    3    1
 2.810245741145705e-05    3    2    1    1
 -0.000187451456898167    3    2    2    1
 -0.0009881174881294229    3    2    2    2
 0.1107687624671116    3    2    3    1
 0.3763681886253726    3    2    3    2
 2.569943646587426    3    3    1    1
 -0.04827518186416167    3    3    2    1
 1.834884382661457    3    3    2    2
 0.0002295094970003764    3    3    3    1
 0.0007358015011747817    3    3    3    2
 2.022320706305033    3    3    3    3
 -0.001377652808843956    4    1    1    1
 0.0001572892524909158    4    1    2    1
 -0.0003838913060567992    4    1    2    2
 -5.687093709794108e-06    4    1    3    1
 -6.294452054571881e-06    4    1    3    2
 -3.107618531703203e-05    4    1    3    3
 0.09794191452315724    4    1    4    1
 -4.009841326196791e-05    4    2    1    1
 -0.0001855853440454265    4    2    2    1
 -0.001001622100422962    4    2    2    2
 -6.421191597330036e-06    4    2    3    1
 -1.830902667017256e-05    4    2    3    2
 0.0001987538706306755    4    2    3    3
 0.1108314530370404    4    2    4    1
 0.3765285969711814    4    2    4    2
 -7.492365553643032e-05    4    3    1    1
 2.180243419240992e-06    4    3    2    1
 -4.239730278509028e-05    4    3    2    2
 0.0001641262101810398    4    3    3    1
 0.0005041564901736871    4    3    3    2
 -4.165188179147027e-05    4    3    3    3
 0.0001485771189057754    4    3    4    1
 0.0003780152641054509    4    3    4    2
 0.1081433899829668    4    3    4    3
 2.570841647102351    4    4    1    1
 -0.04830631628119975    4    4    2    1
 1.835362923714263    4    4    2    2
 -5.29648795138534e-05    4    4    3    1
 8.254969104810588e-05    4    4    3    2
 1.806572397590036    4    4    3    3
 0.0002080483157832201    4    4    4    1
 0.0005831996272789188    4    4    4    2
 -4.215967237190011e-05    4    4    4    3
 2.023390638227532    4    4    4    4
 0.001028209081441768    5    1    1    1
 -0.0001458088655739509    5    1    2    1
 0.0002353771379682809    5    1    2    2
 2.283631750392845e-05    5    1    3    1
 2.081940920913826e-05    5    1    3    2
 4.200507866777701e-05    5    1    3    3
 3.422110132330697e-05    5    1    4    1
 3.055249861741534e-05    5    1    4    2
 -2.113547022320819e-06    5    1    4    3
 4.672148408859746e-05    5    1    4    4
 0.09827011401375671    5    1    5    1
 -0.0003578942314013844    5    2    1    1
 0.000120779814709944    5    2    2    1
 0.0004015678285589865    5    2    2    2
 2.113685242849671e-05    5    2    3    1
 4.631069136472136e-05    5    2    3    2
 -0.0002277170941766534    5    2    3    3
 3.066475245624684e-05    5    2    4    1
 6.231266357413245e-05    5    2    4    2
 -1.504445043445249e-05    5    2    4    3
 -0.0001950878325447065    5    2    4    4
 0.111120841133943    5    2    5    1
 0.3770987753452701    5    2    5    2
 0.0003007754132701309    5    3    1    1
 -1.088150839756986e-05    5    3    2    1
 0.0001532709317975786    5    3    2    2
 -0.0001016200421178444    5    3    3    1
 -0.000265539245153562    5    3    3    2
 0.000173412029434665    5    3    3    3
 -2.152910744119146e-06    5    3    4    1
 -1.513710946625912e-05    5    3    4    2
 1.932628183954122e-05    5    3    4    3
 0.0001491403355828525    5    3    4    4
 0.0001454530091395962    5    3    5    1
 0.0003539834799143262    5    3    5    2
 0.1083218234561035    5    3    5    3
 0.0004498526359750127    5    4    1    1
 -1.653525435389815e-05    5    4    2    1
 0.0002255094884438539    5    4    2    2
 -2.182894740874009e-06    5    4    3    1
 -1.515509383406084e-05    5    4    3    2
 0.000222930117061943    5    4    3    3
 -9.68137690872527e-05    5    4    4    1
 -0.0002322210279071377    5    4    4    2
 1.232159305335687e-05    5    4    4    3
 0.0002580369278534599    5    4    4    4
 0.0001418014475804769    5    4    5    1
 0.0003453233832030644    5    4    5    2
 -2.472932266414465e-06    5    4    5    3
 0.1083583361174273    5    4    5    4
 2.575152699525629    5    5    1    1
 -0.04846676236978335    5    5    2    1
 1.837505367595464    5    5    2    2
 -5.679654295379733e-05    5    5    3    1
 5.761543800860733e-05    5    5    3    2
 1.808698831914823    5    5    3    3
 -5.409215644180717e-05    5    5    4    1
 3.908347257757139e-05    5    5    4    2
 -3.734886349391487e-05    5    5    4    3
 1.809159298441251    5    5    4    4
 -0.0001517206188653228    5    5    5    1
 -0.0006905775825346654    5    5    5    2
 0.0001705647482163732    5    5    5    3
 0.000254889957823865    5    5    5    4
 2.028330645235955    5    5    5    5
 0.2381944836678018    6    1    1    1
 -0.05020671166751935    6    1    2    1
 0.01696952406875276    6    1    2    2
 0.00140173882800196    6    1    3    1
 0.001588575613254349    6    1    3    2
 0.00975005544774136    6    1    3    3
 0.002113952290266579    6    1    4    1
 0.002356423271636741    6    1    4    2
 6.924714868334337e-06    6    1    4    3
 0.00974813726639787    6    1    4    4
 -0.0008079001063751172    6    1    5    1
 -0.0009304283427619697    6    1    5    2
 -3.093343928440085e-06    6    1    5    3
 -2.874974730482089e-06    6    1    5    4
 0.009753492117369795    6    1    5    5
 0.01086724366952771    6    1    6    1
 -0.3133572361497717    6    2    1    1
 0.01746549255506234    6    2    2    1
 -0.1550236745632758    6    2    2    2
 0.001162509193604196    6    2    3    1
 0.002782649484226423    6    2    3    2
 -0.1600294638017755    6    2    3    3
 0.001728869027369375    6    2    4    1
 0.004225440313225711    6    2    4    2
 6.940746626171699e-05    6    2    4    3
 -0.160344899373855    6    2    4    4
 -0.0006822340139887997    6    2    5    1
 -0.001595812491533257    6    2    5    2
 -9.277655486572025e-05    6    2    5    3
 -0.0001105627041182923    6    2    5    4
 -0.1612201090851663    6    2    5    5
 -0.003536814444293368    6    2    6    1
 0.02362835752822622    6    2    6    2
 0.021342737539766    6    3    1    1
 -0.0006720347834725366    6    3    2    1
 0.01147519683314389    6    3    2    2
 -0.01692029111383671    6    3    3    1
 -0.03808669905070504    6    3    3    2
 0.01313848201441071    6    3    3    3
 2.965384307284376e-05    6    3    4    1
 0.0001594802579270735    6    3    4    2
 0.001236453597516616    6    3    4    3
 0.01133002814871471    6    3    4    4
 -3.934343800263528e-05    6    3    5    1
 -0.0002180513137273065    6    3    5    2
 -0.0004948565897000128    6    3    5    3
 1.854533883648516e-05    6    3    5    4
 0.01138108976136742    6    3    5    5
 -0.0001087226536542148    6    3    6    1
 -0.002240318178426471    6    3    6    2
 0.009358024057246251    6    3    6    3
 0.03235615427970035    6    4    1    1
 -0.001019715652062358    6    4    2    1
 0.01750324423174371    6    4    2    2
 2.842512590383262e-05    6    4    3    1
 0.000158596499913682    6    4    3    2
 0.01720479611673792    6    4    3    3
 -0.01706351703821924    6    4    4    1
 -0.03888252472570745    6    4    4    2
 0.000868600895729906    6    4    4    3
 0.02021741524306186    6    4    4    4
 -4.491355135533564e-05    6    4    5    1
 -0.0002484116743541821    6    4    5    2
 1.829565741375101e-05    6    4    5    3
 -0.0005165251412587934    6    4    5    4
 0.01740715389137131    6    4    5    5
 -0.0001632797842119326    6    4    6    1
 -0.003384217430756154    6    4    6    2
 0.0001969859305832712    6    4    6    3
 0.009444018927550315    6    4    6    4
 -0.0124240024237624    6    5    1    1
 0.000389075011894494    6    5    2    1
 -0.006688821250504992    6    5    2    2
 -4.028100786084699e-05    6    5    3    1
 -0.0002208940013733404    6    5    3    2
 -0.006587084306728046    6    5    3    3
 -4.656777458796109e-05    6    5    4    1
 -0.0002499897800270222    6    5    4    2
 1.677043504478565e-05    6    5    4    3
 -0.006611733562186024    6    5    4    4
 -0.01742585961298369    6    5    5    1
 -0.04082465273437189    6    5    5    2
 0.0008994729059896978    6    5    5    3
 0.00140581262627419    6    5    5    4
 -0.007688862908153225    6    5    5    5
 6.7191898199159e-05    6    5    6    1
 0.001315631496966143    6    5    6    2
 -9.293860903292336e-05    6    5    6    3
 -0.0001340202059516837    6    5    6    4
 0.009007188822332318    6    5    6    5
 0.6030168776333581    6    6    1    1
 -0.003829583076170732    6    6    2    1
 0.5683805486322455    6    6    2    2
 -0.001552379905105603    6    6    3    1
 -0.008706267096859234    6    6    3    2
 0.5709475741764023    6    6    3    3
 -0.002315178638988694    6    6    4    1
 -0.01298563210258801    6    6    4    2
 0.0004828692287444488    6    6    4    3
 0.5697097858112344    6    6    4    4
 0.0008689309296877605    6    6    5    1
 0.004791232741069656    6    6    5    2
 -0.0003587969026314723    6    6    5    3
 -0.0003792790549005521    6    6    5    4
 0.5672668244407829    6    6    5    5
 0.0007900297742258731    6    6    6    1
 -0.008487199277900674    6    6    6    2
 -0.0009386090263166338    6    6    6    3
 -0.001119596590848101    6    6    6    4
 0.0003189269819194669    6    6    6    5
 0.4592425461450719    6    6    6    6
 0.02824215790893316    7    1    1    1
 -0.005923993098467453    7    1    2    1
 0.00208097926514497    7    1    2    2
 -0.01871135368104777    7    1    3    1
 -0.02010841393545929    7    1    3    2
 0.001103314543203367    7    1    3    3
 -0.003453630008046326    7    1    4    1
 -0.003705440014926281    7    1    4    2
 -5.801929675569182e-05    7    1    4    3
 0.001147883685203974    7    1    4    4
 0.001561968794717554    7    1    5    1
 0.00167381372824112    7    1    5    2
 2.443876346159139e-05    7    1    5    3
 7.873664147854307e-06    7    1    5    4
 0.00115538313232123    7    1    5    5
 0.0009088661781992966    7    1    6    1
 -0.0007043566140853955    7    1    6    2
 0.00314142980871125    7    1    6    3
 0.0005983856878878524    7    1    6    4
 -0.000268095726582505    7    1    6    5
 0.0004904568584527125    7    1    6    6
 0.003877431282488873    7    1    7    1
 -0.03644047412139032    7    2    1    1
 0.002080890189358503    7    2    2    1
 -0.01777174978594311    7    2    2    2
 -0.0141562528613728    7    2    3    1
 -0.03418381075838133    7    2    3    2
 -0.01856602261478539    7    2    3    3
 -0.002604843771729108    7    2    4    1
 -0.006292420978225236    7    2    4    2
 -0.0006527856282261073    7    2    4    3
 -0.01851203077814226    7    2    4    4
 0.001181464412704087    7    2    5    1
 0.002874020963989734    7    2    5    2
 0.0001201965642536068    7    2    5    3
 5.086601862557969e-05    7    2    5    4
 -0.0186054778439467    7    2    5    5
 -0.0006940366666370011    7    2    6    1
 0.002125065305254866    7    2    6    2
 0.007001796116267631    7    2    6    3
 0.00103200880375199    7    2    6    4
 -0.0004877468713388223    7    2    6    5
 -0.002014636870323736    7    2    6    6
 0.002667985168024621    7    2    7    1
 0.006298563706979288    7    2    7    2
 -0.2754601272573748    7    3    1    1
 0.009152336894530032    7    3    2    1
 -0.1457790242993003    7    3    2    2
 -0.002016637714992596    7    3    3    1
 -0.004535709130930708    7    3    3    2
 -0.169152774484397    7    3    3    3
 -0.0002781698602806224    7    3    4    1
 -0.00162451357878526    7    3    4    2
 -0.002183792766387005    7    3    4    3
 -0.1456246558102983    7    3    4    4
 3.634245352136893e-05    7    3    5    1
 0.0002736891252530516    7    3    5    2
 0.0009386025581177179    7    3    5    3
 -5.505954326543644e-05    7    3    5    4
 -0.1460750459585211    7    3    5    5
 -0.001817600781073532    7    3    6    1
 0.02145828196145125    7    3    6    2
 -0.0007842196709828926    7    3    6    3
 -0.002289053065786524    7    3    6    4
 0.0008700842961729455    7    3    6    5
 -0.007782860561757759    7    3    6    6
 0.0001747733870233601    7    3    7    1
 0.003349706789910906    7    3    7    2
 0.02369747544570416    7    3    7    3
 -0.05084650724785147    7    4    1    1
 0.001690999541873398    7    4    2    1
 -0.02691578178074477    7    4    2    2
 -0.000301476204741679    7    4    3    1
 -0.001651282400821217    7    4    3    2
 -0.0268858890390407    7    4    3    3
 -0.002009724156804727    7    4    4    1
 -0.004505117012948326    7    4    4    2
 -0.01186736144175294    7    4    4    3
 -0.03127298584081175    7    4    4    4
 2.089394286628067e-05    7    4    5    1
 0.0001277963513348712    7    4    5    2
 -3.48641261124241e-05    7    4    5    3
 0.0009844928173851327    7    4    5    4
 -0.02697833134830335    7    4    5    5
 -0.0003766158834907166    7    4    6    1
 0.003871461243038284    7    4    6    2
 -0.0005962914316350787    7    4    6    3
 0.0003792160708627465    7    4    6    4
 0.0001827575805149681    7    4    6    5
 -0.00147240599295316    7    4    6    6
 8.568210109409741e-05    7    4    7    1
 0.0005886331466879653    7    4    7    2
 0.003882984860045347    7    4    7    3
 0.003295674846542781    7    4    7    4
 0.02307280972727137    7    5    1    1
 -0.0007647957603124818    7    5    2    1
 0.01224534826501647    7    5    2    2
 5.82336069466235e-05    7    5    3    1
 0.0002902065712026832    7    5    3    2
 0.01218616996504944    7    5    3    3
 2.281516921136157e-05    7    5    4    1
 0.0001274786732934582    7    5    4    2
 -3.374618996870319e-05    7    5    4    3
 0.01222471221436981    7    5    4    4
 -0.002050160586487299    7    5    5    1
 -0.004725218673848904    7    5    5    2
 -0.01210030593334984    7    5    5    3
 -0.002230312547691586    7    5    5    4
 0.01431484602312886    7    5    5    5
 0.0001673898426336485    7    5    6    1
 -0.00176326625968151    7    5    6    2
 0.0002346376610713994    7    5    6    3
 0.0002071187546134248    7    5    6    4
 0.0007398695072973106    7    5    6    5
 0.0006579136037138463    7    5    6    6
 -2.568214124968444e-05    7    5    7    1
 -0.0002755581100494258    7    5    7    2
 -0.001774688092443298    7    5    7    3
 -0.0003365474298569103    7    5    7    4
 0.002635844820938095    7    5    7    5
 0.009064201698325699    7    6    1    1
 -0.0002862783382702572    7    6    2    1
 0.007322053548657306    7    6    2    2
 0.009817406606186055    7    6    3    1
 0.05528114420467101    7    6    3    2
 0.00696775556828288    7    6    3    3
 0.001776541698035598    7    6    4    1
 0.01013584449097373    7    6    4    2
 -0.002954145235124728    7    6    4    3
 0.00776097436204494    7    6    4    4
 -0.0008183147660030617    7    6    5    1
 -0.004675006850644809    7    6    5    2
 0.000646216080815549    7    6    5    3
 0.0002831841764445509    7    6    5    4
 0.007881440959104379    7    6    5    5
 0.000261594312131038    7    6    6    1
 -0.0008446327345919698    7    6    6    2
 0.009960637044705022    7    6    6    3
 0.001945301002083482    7    6    6    4
 -0.0009137051159239764    7    6    6    5
 -0.02484924246573482    7    6    6    6
 -0.001897258888656507    7    6    7    1
 0.005247543693196097    7    6    7    2
 0.0001393076478286777    7    6    7    3
 -0.002019784076646834    7    6    7    4
 0.0003792626466986248    7    6    7    5
 0.1299828346823243    7    6    7    6
 0.5486802456882192    7    7    1    1
 -0.001864614195675679    7    7    2    1
 0.5232940511529222    7    7    2    2
 0.001827977792067402    7    7    3    1
 0.00952903285701337    7    7    3    2
 0.535334921618399    7    7    3    3
 -0.001193553102772179    7    7    4    1
 -0.009070496795613675    7    7    4    2
 0.002424569990903768    7    7    4    3
 0.5203673422683941    7    7    4    4
 0.000101674653193669    7    7    5    1
 0.0009813272317250486    7    7    5    2
 -0.001410090487373303    7    7    5    3
 -0.0004229359168678816    7    7    5    4
 0.5183319892874794    7    7    5    5
 0.0004130327317787215    7    7    6    1
 -0.006496088294145676    7    7    6    2
 0.001552797067558532    7    7    6    3
 -0.001440044994082784    7    7    6    4
 -4.27240780455234e-05    7    7    6    5
 0.4542638513003997    7    7    6    6
 -0.0002410523570735705    7    7    7    1
 -0.0004552133260438581    7    7    7    2
 -0.002612973937469908    7    7    7    3
 -0.001179122449901194    7    7    7    4
 0.0002815420782467816    7    7    7    5
 0.001712568590296507    7    7    7    6
 0.500804001096235    7    7    7    7
 -0.02852807705745187    8    1    1    1
 0.005995506317906739    8    1    2    1
 -0.002080187740612126    8    1    2    2
 -0.004262242398740667    8    1    3    1
 -0.004583509683688607    8    1    3    2
 -0.001152468233433825    8    1    3    3
 0.01867860134011266    8    1    4    1
 0.02004253925434026    8    1    4    2
 1.882435837718058e-05    8    1    4    3
 -0.001140360303539164    8    1    4    4
 -0.001741217440860021    8    1    5    1
 -0.001863147764933817    8    1    5    2
 -7.695424814346876e-08    8    1    5    3
 -1.862239603071923e-05    8    1    5    4
 -0.00116745965755186    8    1    5    5
 -0.0009265704198638423    8    1    6    1
 0.0007073316151862415    8    1    6    2
 0.0007040193129689287    8    1    6    3
 -0.00316968621537275    8    1    6    4
 0.0003009862250741591    8    1    6    5
 -0.0004815889979780358    8    1    6    6
 -2.208518106072908e-05    8    1    7    1
 0.0001468066258809129    8    1    7    2
 0.0002449461970011796    8    1    7    3
 -0.0003196688774324191    8    1    7    4
 1.926543415177045e-05    8    1    7    5
 -7.381422370385032e-05    8    1    7    6
 -0.0003473285776449681    8    1    7    7
 0.003936970528860638    8    1    8    1
 0.03675657198866471    8    2    1    1
 -0.002100099957137691    8    2    2    1
 0.0178758717116323    8    2    2    2
 -0.00320682173702195    8    2    3    1
 -0.007653037884695684    8    2    3    2
 0.01914046622769211    8    2    3    3
 0.01400143310415479    8    2    4    1
 0.03345068657952718    8    2    4    2
 -1.260450408109671e-05    8    2    4    3
 0.01810726698710299    8    2    4    4
 -0.001303019117546137    8    2    5    1
 -0.003129575454093076    8    2    5    2
 -2.614579346544516e-05    8    2    5    3
 1.49264420926426e-05    8    2    5    4
 0.01862795959961195    8    2    5    5
 0.0006944234673165556    8    2    6    1
 -0.002155379884116287    8    2    6    2
 0.001835097969275    8    2    6    3
 -0.006866075628363428    8    2    6    4
 0.0005531809421912634    8    2    6    5
 0.002088561241810751    8    2    6    6
 0.0001461822141434766    8    2    7    1
 -0.0001131703473558824    8    2    7    2
 -0.002293830281815302    8    2    7    3
 -0.001319177390366352    8    2    7    4
 0.0002882994935502327    8    2    7    5
 0.0001719527627808219    8    2    7    6
 0.002645100325040117    8    2    7    7
 0.002682666926764933    8    2    8    1
 0.006365314691542597    8    2    8    2
 -0.06233230333081184    8    3    1    1
 0.002082084217565428    8    3    2    1
 -0.0328330114704276    8    3    2    2
 0.002285317362787223    8    3    3    1
 0.006012811200572146    8    3    3    2
 -0.03808254867032965    8    3    3    3
 4.822040005752701e-06    8    3    4    1
 -6.117045509623783e-05    8    3    4    2
 0.011656003331203    8    3    4    3
 -0.03279800122528332    8    3    4    4
 -1.725965588612699e-05    8    3    5    1
 -7.532282483237182e-05    8    3    5    2
 -0.001100607240904954    8    3    5    3
 6.731140157281766e-06    8    3    5    4
 -0.03289660543971871    8    3    5    5
 -0.0003723793750669609    8    3    6    1
 0.004938033396834548    8    3    6    2
 -0.001158892304267051    8    3    6    3
 -0.0003278408393493132    8    3    6    4
 0.0001734244319334077    8    3    6    5
 -0.001925135656593503    8    3    6    6
 -0.0004701567517771828    8    3    7    1
 -0.0002520413391467981    8    3    7    2
 0.004731734917733937    8    3    7    3
 -0.001551768962342477    8    3    7    4
 -0.0001365691336398763    8    3    7    5
 0.0009114962616019769    8    3    7    6
 -0.001406339962815385    8    3    7    7
 -4.702053653608885e-05    8    3    8    1
 -0.0007512151298769795    8    3    8    2
 0.003683507026845256    8    3    8    3
 0.2730936561678008    8    4    1    1
 -0.009134248076530854    8    4    2    1
 0.1438720684911106    8    4    2    2
 -3.247539639468317e-05    8    4    3    1
 -0.0001045123831690144    8    4    3    2
 0.1436815871690101    8    4    3    3
 0.001793604247490722    8    4    4    1
 0.003203925427713384    8    4    4    2
 -0.002674665431930561    8    4    4    3
 0.1671447733343407    8    4    4    4
 2.50951520779475e-05    8    4    5    1
 7.454563342102083e-05    8    4    5    2
 2.731399374718977e-05    8    4    5    3
 -0.001024684109924871    8    4    5    4
 0.1442015183903012    8    4    5    5
 0.001814963555847472    8    4    6    1
 -0.02122942008093471    8    4    6    2
 0.001369553257865854    8    4    6    3
 0.001558363770769337    8    4    6    4
 -0.0008610559300585376    8    4    6    5
 0.008774602832235055    8    4    6    6
 0.0001527172798876486    8    4    7    1
 -0.002649608865039552    8    4    7    2
 -0.01846219757624947    8    4    7    3
 -0.003905693664403097    8    4    7    4
 0.001595059246588672    8    4    7    5
 -0.0004178478043890918    8    4    7    6
 0.007937783957038574    8    4    7    7
 0.0001222554956176439    8    4    8    1
 0.003394830214518539    8    4    8    2
 -0.004727387464659286    8    4    8    3
 0.02331378031647882    8    4    8    4
 -0.02550726433132046    8    5    1    1
 0.0008521717974320833    8    5    2    1
 -0.0134639072123927    8    5    2    2
 -8.801221367115323e-06    8    5    3    1
 -6.741097325257256e-05    8    5    3    2
 -0.01345356802137871    8    5    3    3
 2.803136560906388e-06    8    5    4    1
 5.385754728257411e-05    8    5    4    2
 1.29692364678893e-05    8    5    4    3
 -0.01340947353092677    8    5    4    4
 0.002038113611388475    8    5    5    1
 0.004589228411548841    8    5    5    2
 -0.002720444489647179    8    5    5    3
 0.01191124442560204    8    5    5    4
 -0.01573383434474524    8    5    5    5
 -0.0001828639937828746    8    5    6    1
 0.001951770984993001    8    5    6    2
 -0.0001124248330933335    8    5    6    3
 -0.0003044712189902977    8    5    6    4
 -0.0007480917759092426    8    5    6    5
 -0.0008483255610539931    8    5    6    6
 1.358236242545035e-05    8    5    7    1
 0.0003014195172014432    8    5    7    2
 0.001689772704944435    8    5    7    3
 0.0005148746940774093    8    5    7    4
 -0.0002089300369008329    8    5    7    5
 -2.577767073363037e-05    8    5    7    6
 -0.0007635720808023731    8    5    7    7
 -1.454596587010201e-05    8    5    8    1
 -0.0003157207063300475    8    5    8    2
 0.0004357421176844893    8    5    8    3
 -0.001942109384640307    8    5    8    4
 0.002695182161781451    8    5    8    5
 -0.007936385022577432    8    6    1    1
 0.0002873012515571239    8    6    2    1
 -0.006200226716912114    8    6    2    2
 0.002151703556360593    8    6    3    1
 0.01182321025532225    8    6    3    2
 -0.005084481444615975    8    6    3    3
 -0.009164857003613729    8    6    4    1
 -0.05077814969092853    8    6    4    2
 0.0001898896262794431    8    6    4    3
 -0.007089666207264618    8    6    4    4
 0.000841564879772712    8    6    5    1
 0.004706586248946946    8    6    5    2
 -9.186271466371114e-05    8    6    5    3
 -0.0002167543038675223    8    6    5    4
 -0.006803932360361203    8    6    5    5
 -0.0002424088714224292    8    6    6    1
 0.0007934390284377918    8    6    6    2
 0.001812419260694647    8    6    6    3
 -0.00813854966215544    8    6    6    4
 0.0007982363527663462    8    6    6    5
 0.02256594952401627    8    6    6    6
 -7.63926216263799e-05    8    6    7    1
 0.0001561703399468376    8    6    7    2
 0.002189968757816599    8    6    7    3
 -0.001167218189790615    8    6    7    4
 -2.287245566724858e-05    8    6    7    5
 0.001886445992601359    8    6    7    6
 0.03983367741039571    8    6    7    7
 -0.001767864549968877    8    6    8    1
 0.005107199344483849    8    6    8    2
 0.0001939106745486597    8    6    8    3
 0.001812371408178969    8    6    8    4
 -6.562508742556591e-05    8    6    8    5
 0.1011931600632987    8    6    8    6
 0.00314132903291125    8    7    1    1
 -8.462818761980552e-06    8    7    2    1
 0.002759879723930185    8    7    2    2
 0.0007391758084208637    8    7    3    1
 0.006581421818608102    8    7    3    2
 0.006175232177868881    8    7    3    3
 -0.001651200315369297    8    7    4    1
 -0.00966637424238366    8    7    4    2
 -0.006847642099841135    8    7    4    3
 -0.0003365627466573323    8    7    4    4
 0.0001206704399334545    8    7    5    1
 0.0005506257588128687    8    7    5    2
 0.0005401870444255568    8    7    5    3
 0.0007493384469481028    8    7    5    4
 0.002510975405140971    8    7    5    5
 -2.207828682822121e-05    8    7    6    1
 -7.579125652044892e-05    8    7    6    2
 0.002216362496531476    8    7    6    3
 -0.001472325817783715    8    7    6    4
 -2.710259459760817e-06    8    7    6    5
 0.00203394495287513    8    7    6    6
 -8.365878013518522e-05    8    7    7    1
 0.001214931046068366    8    7    7    2
 0.0009266754796183642    8    7    7    3
 -0.002384485354130835    8    7    7    4
 0.0002180631093083766    8    7    7    5
 0.03379528399802969    8    7    7    6
 0.01505042408696021    8    7    7    7
 -0.0003321610784991424    8    7    8    1
 0.001466319712848185    8    7    8    2
 0.002048087752557859    8    7    8    3
 0.0009125801698512329    8    7    8    4
 -0.0002093034711849768    8    7    8    5
 0.02743045469030662    8    7    8    6
 0.0384541637996822    8    7    8    7
 0.5445716972570822    8    8    1    1
 -0.001897358486934671    8    8    2    1
 0.518818660584162    8    8    2    2
 -4.288208687798036e-05    8    8    3    1
 0.0005062878350599503    8    8    3    2
 0.5161829729772482    8    8    3    3
 0.003629011605195056    8    8    4    1
 0.02228657131008343    8    8    4    2
 -0.003235974764693112    8    8    4    3
 0.5305634828037865    8    8    4    4
 -0.0003232790376469416    8    8    5    1
 -0.001994944234339727    8    8    5    2
 0.0002092264143499367    8    8    5    3
 -0.001574569100466957    8    8    5    4
 0.5141130443020029    8    8    5    5
 0.0005142443840333349    8    8    6    1
 -0.00691740267789201    8    8    6    2
 0.001122657658024355    8    8    6    3
 0.004908046446876234    8    8    6    4
 -0.0007405918325483264    8    8    6    5
 0.4226617354031025    8    8    6    6
 -7.232054764003845e-05    8    8    7    1
 9.61322612286237e-05    8    8    7    2
 -0.008047083292096588    8    8    7    3
 -0.0009803230107632128    8    8    7    4
 0.0006454617765209943    8    8    7    5
 0.02342088942681573    8    8    7    6
 0.4051694456838362    8    8    7    7
 0.0006139069706374335    8    8    8    1
 -0.002176084340667409    8    8    8    2
 -0.0008066904299145359    8    8    8    3
 0.00228848845159619    8    8    8    4
 -0.0002584169857802451    8    8    8    5
 -0.05595909071700727    8    8    8    6
 -0.01023298420918396    8    8    8    7
 0.5105156352046391    8    8    8    8
 -0.01137155000269161    9    1    1    1
 0.002394389242271894    9    1    2    1
 -0.000823962198960185    9    1    2    2
 -0.001328310899485082    9    1    3    1
 -0.001423038885211496    9    1    3    2
 -0.0004625474159649165    9    1    3    3
 -0.002267218791684908    9    1    4    1
 -0.002426967417445732    9    1    4    2
 -4.876368465395536e-06    9    1    4    3
 -0.0004652528128559513    9    1    4    4
 -0.01712769922351825    9    1    5    1
 -0.01830736757949593    9    1    5    2
 -2.207929401951537e-05    9    1    5    3
 -2.230680892141024e-05    9    1    5    4
 -0.000427511883275968    9    1    5    5
 -0.0004374781107030172    9    1    6    1
 0.0002296497157401898    9    1    6    2
 0.0002208247770577584    9    1    6    3
 0.0003778708767663052    9    1    6    4
 0.002929760865320379    9    1    6    5
 -0.0001139983231343824    9    1    6    6
 9.926309891870902e-07    9    1    7    1
 6.460439143962244e-05    9    1    7    2
 0.0001094412344098859    9    1    7    3
 6.051068141642773e-05    9    1    7    4
 0.000336104374411991    9    1    7    5
 -3.005080791842388e-05    9    1    7    6
 -3.152013101529191e-05    9    1    7    7
 -9.52387501499173e-06    9    1    8    1
 -7.143840600094599e-05    9    1    8    2
 -8.156652011330324e-06    9    1    8    3
 -0.0001267799848870739    9    1    8    4
 -0.0003349896925043473    9    1    8    5
 3.502052613081371e-05    9    1    8    6
 6.730736735191093e-06    9    1    8    7
 -3.977279730448773e-05    9    1    8    8
 0.0030846561383636    9    1    9    1
 0.01470152956067446    9    2    1    1