 &FCI NORB=  14,NELEC= 14,MS2=0,
  ORBSYM=1,1,1,1,1,1,1,1,1,1,1,1,1,1,
  ISYM=1,
 &END
 4.744124751840276    1    1    1    1
 -0.4223136369980869    2    1    1    1
 0.05956912889920329    2    1    2    1
 1.010407890197704    2    2    1    1
 -0.01407682005832197    2    2    2    1
 0.7238845005122952    2    2    2    2
 -0.04406112039205804    3    1    1    1
 0.005418282355857694    3    1    2    1
 -0.004150369209665767    3    1    2    2
 0.008745207156138218    3    1    3    1
 0.02926174458613418    3    2    1    1
 -0.002462379181082085    3    2    2    1
 -0.00853967148168862    3    2    2    2
 0.0130774854248461    3    2    3    1
 0.1108941228716724    3    2    3    2
 0.6629067207071379    3    3    1    1
 -0.003796820778424729    3    3    2    1
 0.5445109638024498    3    3    2    2
 0.001121242169712166    3    3    3    1
 0.00418829627241128    3    3    3    2
 0.4906822074883949    3    3    3    3
 0.09976762495241481    4    1    1    1
 -0.01347924796767793    4    1    2    1
 0.005489702174719624    4    1    2    2
 0.0004862140003259749    4    1    3    1
 0.00355102591849774    4    1    3    2
 0.002406378243737037    4    1    3    3
 0.005831483337916468    4    1    4    1
 -0.1100436713626479    4    2    1    1
 0.004127480120974326    4    2    2    1
 -0.03984146048488559    4    2    2    2
 0.003434573046780212    4    2    3    1
 0.02036875327944012    4    2    3    2
 -0.01016489009190353    4    2    3    3
 0.002663752379360446    4    2    4    1
 0.02911830053259734    4    2    4    2
 0.07971890667361893    4    3    1    1
 -0.0002796978493681833    4    3    2    1
 0.05618232842012153    4    3    2    2
 -0.00069362368478768    4    3    3    1
 0.02734241958286558    4    3    3    2
 0.02012213778908824    4    3    3    3
 0.0004025568150319728    4    3    4    1
 -0.002892515117872085    4    3    4    2
 0.09111600980430185    4    3    4    3
 0.3586839872571433    4    4    1    1
 -0.002263439062451603    4    4    2    1
 0.3099786873709646    4    4    2    2
 -0.001332830956456948    4    4    3    1
 -0.0106612737812185    4    4    3    2
 0.3387099259752027    4    4    3    3
 -0.0004745155480203842    4    4    4    1
 0.001122547778339646    4    4    4    2
 -0.0573484157809547    4    4    4    3
 0.4166925892432645    4    4    4    4
 -0.02250086403784719    5    1    1    1
 0.002638868357412334    5    1    2    1
 -0.002535437593076432    5    1    2    2
 0.00541066173899296    5    1    3    1
 0.00811723276873434    5    1    3    2
 0.0006910984966596455    5    1    3    3
 0.0003723853366511708    5    1    4    1
 0.001952116227199521    5    1    4    2
 -0.0004969465846645691    5    1    4    3
 -0.0007310851536463289    5    1    4    4
 0.003365573688812447    5    1    5    1
 0.01079018017988413    5    2    1    1
 -0.001322949886435648    5    2    2    1
 -0.007188524446415626    5    2    2    2
 0.007360280062342096    5    2    3    1
 0.05431159844348471    5    2    3    2
 0.003408789728578087    5    2    3    3
 0.001823520880742132    5    2    4    1
 0.01034582109465806    5    2    4    2
 0.002585448758601156    5    2    4    3
 -3.350090689110044e-05    5    2    4    4
 0.004582587387880567    5    2    5    1
 0.02838894552164857    5    2    5    2
 0.2444096413977851    5    3    1    1
 -0.00246638695716628    5    3    2    1
 0.1659524812672941    5    3    2    2
 0.0007260695183555774    5    3    3    1
 0.007809672819773078    5    3    3    2
 0.09891787039846321    5    3    3    3
 0.001053699510962433    5    3    4    1
 -0.01691953155866866    5    3    4    2
 0.03731413302737802    5    3    4    3
 -0.04487963917339472    5    3    4    4
 0.0004625558941956494    5    3    5    1
 0.002904959697461713    5    3    5    2
 0.1000915968829043    5    3    5    3
 0.04656940590136165    5    4    1    1
 -3.788373881499416e-05    5    4    2    1
 0.04003405216503135    5    4    2    2
 -0.001967181689365158    5    4    3    1
 -0.02864329809701439    5    4    3    2
 0.05012831386150207    5    4    3    3
 -7.662949929045993e-05    5    4    4    1
 -0.001238461621707806    5    4    4    2
 -0.1055274088940954    5    4    4    3
 0.07205509233429631    5    4    4    4
 -0.001139706621033155    5    4    5    1
 -0.0005789920700243437    5    4    5    2
 0.01554387243084984    5    4    5    3
 0.2029475642553944    5    4    5    4
 0.3436623691732802    5    5    1    1
 -0.001523837606731666    5    5    2    1
 0.2999614590670601    5    5    2    2
 0.0007986105482217636    5    5    3    1
 0.01289928445736897    5    5    3    2
 0.3233636065951037    5    5    3    3
 0.001006040570676861    5    5    4    1
 0.006944722050851508    5    5    4    2
 0.03249881556904594    5    5    4    3
 0.3739730348929909    5    5    4    4
 0.0004530707486229916    5    5    5    1
 0.0001450127487807925    5    5    5    2
 -0.05617903943356536    5    5    5    3
 -0.09929888402904026    5    5    5    4
 0.4867769237625232    5    5    5    5
 -0.1145858522831881    6    1    1    1
 0.01388098274910288    6    1    2    1
 -0.01146861997474623    6    1    2    2
 0.003005723778601532    6    1    3    1
 0.001485006261750313    6    1    3    2
 -0.00380042767087023    6    1    3    3
 -0.009118978597485441    6    1    4    1
 -0.006091481113297401    6    1    4    2
 -0.001534952892325714    6    1    4    3
 0.001433523372414386    6    1    4    4
 0.001967053936585483    6    1    5    1
 0.001251286726098561    6    1    5    2
 -0.001284681234233403    6    1    5    3
 -0.001147924682936924    6    1    5    4
 -0.001160885522627949    6    1    5    5
 0.02020271987535771    6    1    6    1
 0.06637383622825635    6    2    1    1
 -0.006266900572771826    6    2    2    1
 -0.01895044243086152    6    2    2    2
 0.001233713706085084    6    2    3    1
 0.01074081857053864    6    2    3    2
 -0.01860047718680613    6    2    3    3
 -0.006267986372829515    6    2    4    1
 -0.04297129506722287    6    2    4    2
 -0.006334276287806037    6    2    4    3
 0.006523506846100468    6    2    4    4
 0.00116958408496681    6    2    5    1
 0.007391510073392023    6    2    5    2
 -0.0007378046271604813    6    2    5    3
 -0.004351143497352759    6    2    5    4
 -0.003830292421035782    6    2    5    5
 0.01984866909926532    6    2    6    1
 0.1094703102630907    6    2    6    2
 0.06666847111726878    6    3    1    1
 -0.001570408136493352    6    3    2    1
 0.03454134350177032    6    3    2    2
 0.001475520655890331    6    3    3    1
 -0.008239914042350633    6    3    3    2
 0.01308581497913989    6    3    3    3
 -0.0002408719357187094    6    3    4    1
 -0.01254394937631611    6    3    4    2
 0.01536243963850413    6    3    4    3
 -0.02553436585296461    6    3    4    4
 0.0009636689438071322    6    3    5    1
 -0.004833670347402262    6    3    5    2
 0.01959411378147182    6    3    5    3
 -0.04463788289434616    6    3    5    4
 0.01327279132932776    6    3    5    5
 0.002352611407451236    6    3    6    1
 0.01388203880428296    6    3    6    2
 0.04149041371710727    6    3    6    3
 -0.2616710525603229    6    4    1    1
 0.004329674088218272    6    4    2    1
 -0.1548000147336351    6    4    2    2
 0.0001536465737776195    6    4    3    1
 -0.01573662887692661    6    4    3    2
 -0.07296347957438952    6    4    3    3
 0.001338488822468752    6    4    4    1
 0.02870742665353154    6    4    4    2
 -0.05249314889274432    6    4    4    3
 0.04761862049960879    6    4    4    4
 -2.617969148376519e-05    6    4    5    1
 -0.004259988126119844    6    4    5    2
 -0.08846813916039048    6    4    5    3
 0.01632334710107793    6    4    5    4
 0.04421985416426655    6    4    5    5
 -0.005014644748195131    6    4    6    1
 -0.0291975472022921    6    4    6    2
 -0.02131487403263287    6    4    6    3
 0.1073688365066905    6    4    6    4
 0.05245930778462746    6    5    1    1
 -0.0009909635301677225    6    5    2    1
 0.03226927413899057    6    5    2    2
 0.0006368027024415255    6    5    3    1
 -0.01616848723253173    6    5    3    2
 0.03092492278067736    6    5    3    3
 -6.321715404797593e-05    6    5    4    1
 -0.005822692229058722    6    5    4    2
 -0.05918362117779725    6    5    4    3
 0.03046078670824031    6    5    4    4
 0.0004874891403008281    6    5    5    1
 0.0002042067817626808    6    5    5    2
 0.01547843893959073    6    5    5    3
 0.09900832224318282    6    5    5    4
 -0.05367904760327535    6    5    5    5
 0.001100103879779343    6    5    6    1
 0.00656978419437178    6    5    6    2
 -0.00361963267409717    6    5    6    3
 0.001855835213697674    6    5    6    4
 0.06004105845645896    6    5    6    5
 0.8733968756931511    6    6    1    1
 -0.009942714043673584    6    6    2    1
 0.610863615130556    6    6    2    2
 -2.198445267915475e-06    6    6    3    1
 0.01428395041933217    6    6    3    2
 0.475539647181655    6    6    3    3
 -0.001244228382536912    6    6    4    1
 -0.05185003745267158    6    6    4    2
 0.02984542808436153    6    6    4    3
 0.3356431135946574    6    6    4    4
 0.0002636271916996831    6    6    5    1
 0.006825537081245684    6    6    5    2
 0.1138330265407455    6    6    5    3
 0.03196050947605888    6    6    5    4
 0.3131172405185762    6    6    5    5
 0.007403242999085203    6    6    6    1
 0.05294680370910904    6    6    6    2
 0.03364512567234171    6    6    6    3
 -0.1419974965713323    6    6    6    4
 0.03357007181906899    6    6    6    5
 0.6129016005335756    6    6    6    6
 0.006939590680656263    7    1    1    1
 -0.0008511468773992449    7    1    2    1
 0.0006341384246309952    7    1    2    2
 -0.0001565098801258655    7    1    3    1
 -6.724305765878318e-05    7    1    3    2
 5.971031660196872e-05    7    1    3    3
 -8.700635060801655e-05    7    1    4    1
 -0.0005061588993863548    7    1    4    2
 -2.639772099686104e-05    7    1    4    3
 -5.867349174085232e-05    7    1    4    4
 0.0002424499737850045    7    1    5    1
 0.0003877274246673905    7    1    5    2
 0.0003032031596916216    7    1    5    3
 0.0001017102844802096    7    1    5    4
 -0.0003586547504793661    7    1    5    5
 -0.0003860400608744292    7    1    6    1
 -8.886789111167431e-05    7    1    6    2
 1.034632175108006e-06    7    1    6    3
 -0.000268613473360869    7    1    6    4
 0.0001954573638350398    7    1    6    5
 0.0001720894142109408    7    1    6    6
 0.02518781327405592    7    1    7    1
 -0.004712278124000306    7    2    1    1
 0.0003670931773417237    7    2    2    1
 0.0001771511108969749    7    2    2    2
 -5.752456570546151e-05    7    2    3    1
 -0.0008032783174872151    7    2    3    2
 -0.0008316746702287238    7    2    3    3
 -0.0004548100824379592    7    2    4    1
 -0.001786462322355381    7    2    4    2
 -0.0004148914631668583    7    2    4    3
 -0.002160011205793908    7    2    4    4
 0.0003788816747360517    7    2    5    1
 0.001606583162164889    7    2    5    2
 0.001776246134310293    7    2    5    3
 0.001392663316496794    7    2    5    4
 -0.004209292995292575    7    2    5    5
 -9.248453788339789e-05    7    2    6    1
 -0.001135994107953723    7    2    6    2
 -9.366245334852926e-05    7    2    6    3
 -0.0009685403356729903    7    2    6    4
 0.001132010703529778    7    2    6    5
 -0.001052083719724535    7    2    6    6
 0.03189997366313297    7    2    7    1
 0.1439765636113337    7    2    7    2
 -0.003842273829335386    7    3    1    1
 7.554221010321323e-05    7    3    2    1
 -0.00248513308445468    7    3    2    2
 -8.732620800997454e-05    7    3    3    1
 0.0006830240150964606    7    3    3    2
 -0.002025731031840728    7    3    3    3
 -8.038640692074036e-05    7    3    4    1
 0.0001172059167784453    7    3    4    2
 0.0001851906559247687    7    3    4    3
 -0.0007133230873413284    7    3    4    4
 -1.374979219853989e-05    7    3    5    1
 0.0004006165069645801    7    3    5    2
 -0.0005521679413136146    7    3    5    3
 -0.000826708327290274    7    3    5    4
 0.0001146731232223611    7    3    5    5
 5.825057476078888e-06    7    3    6    1
 7.482903160270396e-05    7    3    6    2
 -0.000774595113220819    7    3    6    3
 0.0003875611971096205    7    3    6    4
 -0.0008003799160852734    7    3    6    5
 -0.001824754768916381    7    3    6    6
 0.003193299763040999    7    3    7    1
 0.01139485405165126    7    3    7    2
 0.02231307241282436    7    3    7    3
 -0.008353807486135201    7    4    1    1
 3.555556919133018e-05    7    4    2    1
 -0.005408290361499877    7    4    2    2
 4.844588224807334e-06    7    4    3    1
 0.000132116765126608    7    4    3    2
 -0.002411252469177521    7    4    3    3
 3.147189297247795e-05    7    4    4    1
 0.001069632349540846    7    4    4    2
 0.0001125691335307739    7    4    4    3
 0.0004931768710757758    7    4    4    4
 -8.727701512112814e-05    7    4    5    1
 -0.0003646400945515357    7    4    5    2
 -0.0026741608034416    7    4    5    3
 -0.002135095012901964    7    4    5    4
 0.002813347700530601    7    4    5    5
 0.0001433772562857823    7    4    6    1
 -0.0001230912465026187    7    4    6    2
 -0.0002693129687819857    7    4    6    3
 0.00243959990548561    7    4    6    4
 -0.001637705927286514    7    4    6    5
 -0.003533139952115474    7    4    6    6
 -0.006926798845436629    7    4    7    1
 -0.02635455773604119    7    4    7    2
 0.002037395973223068    7    4    7    3
 0.0112174153249088    7    4    7    4
 0.00946925934194019    7    5    1    1
 -0.0001033474086181874    7    5    2    1
 0.005720935776408585    7    5    2    2
 -9.877108303715579e-05    7    5    3    1
 -0.0001684720108495722    7    5    3    2
 0.00275777840014268    7    5    3    3
 -1.388720365976093e-05    7    5    4    1
 -0.0009123612225643365    7    5    4    2
 -0.001206881441430609    7    5    4    3
 -0.0004660987408865334    7    5    4    4
 -3.820072214602625e-05    7    5    5    1
 0.000216065555781124    7    5    5    2
 0.003343316033476058    7    5    5    3
 0.004578262112032848    7    5    5    4
 -0.004436461146509558    7    5    5    5
 -5.123521737678893e-05    7    5    6    1
 0.0003871144774301825    7    5    6    2
 -0.0005393448891459556    7    5    6    3
 -0.002716532813409009    7    5    6    4
 0.002445650044922387    7    5    6    5
 0.004094776944835544    7    5    6    6
 0.001591042523676927    7    5    7    1
 0.005273696033828036    7    5    7    2
 0.01258487766994412    7    5    7    3
 0.001014548229654394    7    5    7    4
 0.007431064442735931    7    5    7    5
 -0.007271480671243601    7    6    1    1
 0.0001931752645807267    7    6    2    1
 -0.004038088232404523    7    6    2    2
 3.3675578880774e-06    7    6    3    1
 0.0002275531813295381    7    6    3    2
 -0.003057993901009361    7    6    3    3
 -6.670845330720361e-05    7    6    4    1
 7.257157042680262e-05    7    6    4    2
 -0.0001043135094664017    7    6    4    3
 -0.0003785642246123503    7    6    4    4
 0.0001049248588995478    7    6    5    1
 0.0004186262393901313    7    6    5    2
 -0.001588346355761856    7    6    5    3
 -0.001456258225462954    7    6    5    4
 0.0001706939510359855    7    6    5    5
 -0.0001828951304242449    7    6    6    1
 -6.715842092228507e-05    7    6    6    2
 -0.0002514197882446168    7    6    6    3
 0.001142100028290477    7    6    6    4
 -0.0003419894755016865    7    6    6    5
 -0.003224436147650598    7    6    6    6
 0.008321066823002259    7    6    7    1
 0.02951781757408744    7    6    7    2
 0.006133561875602322    7    6    7    3
 -0.0179783317300658    7    6    7    4
 0.003686170321997415    7    6    7    5
 0.04044653223462642    7    6    7    6
 1.09279627625484    7    7    1    1
 -0.01150234923095873    7    7    2    1
 0.7380087198583118    7    7    2    2
 -0.001183102739217466    7    7    3    1
 0.01548032365121095    7    7    3    2
 0.5257748588450689    7    7    3    3
 0.002619594506972753    7    7    4    1
 -0.06165355091906487    7    7    4    2
 0.05595614155719102    7    7    4    3
 0.3053206875228587    7    7    4    4
 -0.00063638857815098    7    7    5    1
 0.005211447843497884    7    7    5    2
 0.1659350319829012    7    7    5    3
 0.03279581087004865    7    7    5    4
 0.294038634691882    7    7    5    5
 -0.002999142819587664    7    7    6    1
 0.03348324380689761    7    7    6    2
 0.04123353685633987    7    7    6    3
 -0.1708865547956939    7    7    6    4
 0.0334285935326545    7    7    6    5
 0.6349590267965345    7    7    6    6
 -0.0009063974311098941    7    7    7    1
 -0.006983842587169744    7    7    7    2
 -0.003146510348311448    7    7    7    3
 -0.005465578372249222    7    7    7    4
 0.006795178755786011    7    7    7    5
 -0.006133397638715173    7    7    7    6
 0.8515343688042172    7    7    7    7
 0.1928364555043821    8    1    1    1
 -0.02833719595602758    8    1    2    1
 0.00378473762695704    8    1    2    2
 -0.005025102649760391    8    1    3    1
 -0.002995471903092621    8    1    3    2
 -0.0001466434462042313    8    1    3    3
 0.002591277826126853    8    1    4    1
 -0.006647817212328917    8    1    4    2
 -0.000274288089019086    8    1    4    3
 0.002392898217641922    8    1    4    4
 -0.002653852765437741    8    1    5    1
 -0.001514928285857885    8    1    5    2
 0.0005559441856878951    8    1    5    3
 0.0002437664346442601    8    1    5    4
 -0.0001332156542525363    8    1    5    5
 0.001560687480221592    8    1    6    1
 0.01286673232555009    8    1    6    2
 0.001425867348028839    8    1    6    3
 -0.00502008052229864    8    1    6    4
 0.0008144177911514284    8    1    6    5
 0.009159633785470864    8    1    6    6
 0.0003149413342082651    8    1    7    1
 -0.0002471909848747057    8    1    7    2
 -6.755124058362301e-06    8    1    7    3
 5.847778365766749e-05    8    1    7    4
 6.742655600614033e-05    8    1    7    5
 -0.0002090611895968344    8    1    7    6
 0.005030704802499066    8    1    7    7
 0.01876254730622393    8    1    8    1
 -0.2361550422886391    8    2    1    1
 0.006171025980046136    8    2    2    1
 -0.1057776450431681    8    2    2    2
 -0.001349965580836682    8    2    3    1
 -0.0151239356258979    8    2    3    2
 -0.04465512625818325    8    2    3    3
 -0.005857029423471339    8    2    4    1
 0.001703625428466961    8    2    4    2
 -0.007669782653236226    8    2    4    3
 -0.007588600109110629    8    2    4    4
 -0.0007414879989356257    8    2    5    1
 -0.007133332363918485    8    2    5    2
 -0.02861913537088322    8    2    5    3
 -0.004018925647150393    8    2    5    4
 -0.01346384777212251    8    2    5    5
 0.0116592140081381    8    2    6    1
 0.02300099800953204    8    2    6    2
 -0.009083709310002873    8    2    6    3
 0.02202604835950941    8    2    6    4
 -0.006602783470194692    8    2    6    5
 -0.06749038501261549    8    2    6    6
 -0.0003014102903528018    8    2    7    1
 0.0001844525269748666    8    2    7    2
 0.0005974737801378099    8    2    7    3
 0.001587448488011776    8    2    7    4
 -0.001266067710856004    8    2    7    5
 0.00043161190523219    8    2    7    6
 -0.1194684997784848    8    2    7    7
 0.003050978782018062    8    2    8    1
 0.05872832699419346    8    2    8    2
 -0.08475809574724401    8    3    1    1
 0.001913681989824825    8    3    2    1
 -0.04160897753312417    8    3    2    2
 -0.002060311350104615    8    3    3    1
 0.02200227112495263    8    3    3    2
 -0.02126566185842079    8    3    3    3
 -0.001027826390845573    8    3    4    1
 0.01212333568217641    8    3    4    2
 0.0147754020759336    8    3    4    3
 -0.001552577646558416    8    3    4    4
 -0.001256838229438128    8    3    5    1
 0.006836836196196574    8    3    5    2
 -0.01472024023933516    8    3    5    3
 -0.008133925830832466    8    3    5    4
 0.0002427974754239931    8    3    5    5
 0.0003823987787538364    8    3    6    1
 -0.008627278060189526    8    3    6    2
 -0.01742456091305118    8    3    6    3
 0.007709070523069139    8    3    6    4
 -0.01176573440125437    8    3    6    5
 -0.02855851033449346    8    3    6    6
 2.112117489210307e-05    8    3    7    1
 0.000586080573684111    8    3    7    2
 0.001144296710816965    8    3    7    3
 0.000696650423634428    8    3    7    4
 -0.0003323055473296903    8    3    7    5
 0.0004433431058160516    8    3    7    6
 -0.04640109372999872    8    3    7    7
 -0.0001191601133166221    8    3    8    1
 0.01789449815285509    8    3    8    2
 0.04423691590771811    8    3    8    3
 -0.02450146592932434    8    4    1    1
 0.0001039377400641256    8    4    2    1
 -5.991408609462359e-05    8    4    2    2
 0.000256218082964286    8    4    3    1
 0.01113369285110599    8    4    3    2
 0.01068673035060461    8    4    3    3
 0.0001671596204055035    8    4    4    1
 0.008864539369838905    8    4    4    2
 0.01539634547614281    8    4    4    3
 -0.01354501141748501    8    4    4    4
 0.0001587735619336281    8    4    5    1
 0.00383578433261944    8    4    5    2
 0.01022320628398839    8    4    5    3
 -0.008166257864785541    8    4    5    4
 -0.008490764951267963    8    4    5    5
 -0.0003482644440147569    8    4    6    1
 -0.01168464786781277    8    4    6    2
 -0.002787698238120923    8    4    6    3
 -0.007459551665308964    8    4    6    4
 -0.006122595961644079    8    4    6    5
 -0.009864846422284329    8    4    6    6
 0.0001899838064657894    8    4    7    1
 0.0009643005303060606    8    4    7    2
 0.0003393484811495659    8    4    7    3
 6.08460524879312e-05    8    4    7    4
 0.0001095558168282335    8    4    7    5
 -0.0002253826764011413    8    4    7    6
 -0.005368355676498736    8    4    7    7
 -0.0003533092453174394    8    4    8    1
 0.01122103247288847    8    4    8    2
 0.01629107528231141    8    4    8    3
 0.01784767360764651    8    4    8    4
 -0.05216152874108396    8    5    1    1
 0.001080268415512409    8    5    2    1
 -0.02852384245174487    8    5    2    2
 -0.001566487175288067    8    5    3    1
 0.005280918870246649    8    5    3    2
 -0.0216396661888567    8    5    3    3
 -0.0006364563997596575    8    5    4    1
 0.004478585375074087    8    5    4    2
 0.01807782979907117    8    5    4    3
 -0.01157830008880325    8    5    4    4
 -0.000991945446940694    8    5    5    1
 -0.0007119979567608225    8    5    5    2
 -0.01196698817427624    8    5    5    3
 -0.03366417714943462    8    5    5    4
 0.01511278882329896    8    5    5    5
 4.349371214135226e-05    8    5    6    1
 -0.004387730482054951    8    5    6    2
 0.0005767731026232025    8    5    6    3
 0.004699294473113068    8    5    6    4
 -0.01964641808890583    8    5    6    5
 -0.02229971088299652    8    5    6    6
 -0.0001578925201910839    8    5    7    1
 -0.0003567262919533544    8    5    7    2
 0.0006036894414749291    8    5    7    3
 0.0007559265916977171    8    5    7    4
 -0.0009266274953580867    8    5    7    5
 0.0004543966757290323    8    5    7    6
 -0.03115672032821888    8    5    7    7
 2.272308134091296e-05    8    5    8    1
 0.008616737384635708    8    5    8    2
 0.01532548989155476    8    5    8    3
 0.006271879806844468    8    5    8    4
 0.01341352479181142    8    5    8    5
 0.1660527180075151    8    6    1    1
 -0.001428886772729182    8    6    2    1
 0.08476367333669271    8    6    2    2
 -0.001805161088063894    8    6    3    1
 -0.009044873446589434    8    6    3    2
 0.02643776776389857    8    6    3    3
 0.001347911983229152    8    6    4    1
 -0.01574788912196176    8    6    4    2
 0.005232104099995974    8    6    4    3
 -0.00121882058607706    8    6    4    4
 -0.00117407688459838    8    6    5    1
 -0.004870379895521142    8    6    5    2
 0.02705094295354436    8    6    5    3
 0.006599809384039531    8    6    5    4
 -0.007200612068124334    8    6    5    5
 -0.004291133666436298    8    6    6    1
 0.002840639978573731    8    6    6    2
 0.009471419989838022    8    6    6    3
 -0.03414212523489752    8    6    6    4
 0.007104402143780064    8    6    6    5
 0.07397188876293807    8    6    6    6
 8.61439830002524e-05    8    6    7    1
 -0.000350399332948257    8    6    7    2
 -0.000410159978418986    8    6    7    3
 -0.001384088373742244    8    6    7    4
 0.001310238162716316    8    6    7    5
 -7.142457852442446e-05    8    6    7    6
 0.09090388514638188    8    6    7    7
 -0.0006792894280947566    8    6    8    1
 -0.03580462884930762    8    6    8    2
 -0.01983472583401715    8    6    8    3
 -0.01367905440539445    8    6    8    4
 -0.008123941793645407    8    6    8    5
 0.03967204930683411    8    6    8    6
 0.002109236857467275    8    7    1    1
 -0.0001117124117765125    8    7    2    1
 0.001297746172272308    8    7    2    2
 8.661255424418675e-05    8    7    3    1
 0.0007045844339047523    8    7    3    2
 0.001852428768448374    8    7    3    3
 0.0002351179570012712    8    7    4    1
 0.0009089617914570193    8    7    4    2
 0.0004666360864934131    8    7    4    3
 0.0005284977973015997    8    7    4    4
 -0.0001069752332735195    8    7    5    1
 -0.000238817027123743    8    7    5    2
 0.000638750401628894    8    7    5    3
 0.0002181726131213838    8    7    5    4
 0.0003486950686332719    8    7    5    5
 -8.95795833267946e-05    8    7    6    1
 -0.0003212340466004839    8    7    6    2
 -1.321762741741087e-05    8    7    6    3
 -0.0006451898768341697    8    7    6    4
 0.0001403088161831512    8    7    6    5
 0.001519605481398106    8    7    6    6
 -0.01219296421965265    8    7    7    1
 -0.0443828245019779    8    7    7    2
 -0.00822804546733677    8    7    7    3
 0.003027200041741478    8    7    7    4
 -0.004168565249532709    8    7    7    5
 0.002277022573747792    8    7    7    6
 0.002335869603668983    8    7    7    7
 -1.137663237686546e-05    8    7    8    1
 0.0001625724099924393    8    7    8    2
 0.0002850030320003184    8    7    8    3
 6.44299804198409e-05    8    7    8    4
 0.0002707255212200543    8    7    8    5
 -4.517333218102473e-05    8    7    8    6
 0.02344526417739451    8    7    8    7
 0.5546900958481322    8    8    1    1
 -0.004865108014652866    8    8    2    1
 0.4391885230001373    8    8    2    2
 0.001638357714106403    8    8    3    1
 0.02984021639360897    8    8    3    2
 0.3866297939663925    8    8    3    3
 0.005366353095419898    8    8    4    1
 0.008535070763949623    8    8    4    2
 0.03824713597873295    8    8    4    3
 0.273059635326429    8    8    4    4
 0.0009227365790634264    8    8    5    1
 0.01192199485266938    8    8    5    2
 0.07199895066907168    8    8    5    3
 0.01849283898208799    8    8    5    4
 0.2696036364825947    8    8    5    5
 -0.01079798192691148    8    8    6    1
 -0.04312063143486414    8    8    6    2
 -0.005117979532476346    8    8    6    3
 -0.063090020909135    8    8    6    4
 0.005125684987737349    8    8    6    5
 0.3839408145825365    8    8    6    6
 0.0002759626796883033    8    8    7    1
 0.0005667991251559636    8    8    7    2
 -0.0005184587474239742    8    8    7    3
 -0.001735017731789918    8    8    7    4
 0.002245290621063143    8    8    7    5
 -0.001972307738289538    8    8    7    6
 0.425841331242341    8    8    7    7
 -0.003554053602721501    8    8    8    1
 -0.04173086046194378    8    8    8    2
 0.009833696306553168    8    8    8    3
 0.02014944170191021    8    8    8    4
 -0.005705372662990595    8    8    8    5
 0.0187598950243478    8    8    8    6
 0.001656370412686347    8    8    8    7
 0.3688286246019553    8    8    8    8
 0.09370677652841311    9    1    1    1
 -0.0133874873693292    9    1    2    1
 0.003010592854294319    9    1    2    2
 -0.004862522692126674    9    1    3    1
 -0.005162625193417231    9    1    3    2
 -0.0002996656166832276    9    1    3    3
 0.0009953967695383757    9    1    4    1
 -0.00367949939617432    9    1    4    2
 0.0001132338245341248    9    1    4    3
 0.001410542012680671    9    1    4    4
 -0.002821614095192909    9    1    5    1
 -0.002833124653090708    9    1    5    2
 3.448751427153015e-05    9    1    5    3
 0.0007501886520714435    9    1    5    4
 -0.0002753329940004477    9    1    5    5
 -0.0005534502364297712    9    1    6    1
 0.004644851621666191    9    1    6    2
 5.099199848436644e-05    9    1    6    3
 -0.002064711922746495    9    1    6    4
 0.0001102430200370701    9    1    6    5
 0.003707162717486003    9    1    6    6
 0.0004927022195755258    9    1    7    1
 0.0002895807069169415    9    1    7    2
 6.393183392683139e-05    9    1    7    3
 -6.367876361382146e-05    9    1    7    4
 8.017994221885753e-05    9    1    7    5
 2.052933096912304e-05    9    1    7    6
 0.002514097956882165    9    1    7    7
 0.009201890192400279    9    1    8    1
 0.00149663518592072    9    1    8    2
 0.0005275580869166504    9    1    8    3
 -0.0002327418406940478    9    1    8    4
 0.0004632259058676608    9    1    8    5
 0.0003507903066062464    9    1    8    6
 -0.0001734934302024444    9    1    8    7
 -0.001790908924082664    9    1    8    8
 0.005298236922996947    9    1    9    1
 -0.1061062312285252    9    2    1    1
 0.003208392395929682    9    2    2    1
 -0.04462187175571887    9    2    2    2
 -0.003018128292211089    9    2    3    1
 -0.01508384589363489    9    2    3    2