 &FCI NORB=  10,NELEC= 5,MS2=0,
  ORBSYM=1,1,1,1,1,1,1,1,1,1,
  ISYM=1,
 &END
 4.744659676998414    1    1    1    1
 -0.4312822084188903    2    1    1    1
 0.06205377272952445    2    1    2    1
 1.024562608767935    2    2    1    1
 -0.01536290604580223    2    2    2    1
 0.7257616636953442    2    2    2    2
 -0.00828356680686328    3    1    1    1
 0.0008913818585704158    3    1    2    1
 -0.001257066598629214    3    1    2    2
 0.01130604738224368    3    1    3    1
 0.0001388230711958664    3    2    1    1
 -0.0006324675626239305    3    2    2    1
 -0.007471857617605417    3    2    2    2
 0.01789675642280271    3    2    3    1
 0.1334308326484325    3    2    3    2
 0.7878637448390857    3    3    1    1
 -0.005076749490896966    3    3    2    1
 0.6264034562106454    3    3    2    2
 0.0003479698490270202    3    3    3    1
 0.001742381283543655    3    3    3    2
 0.6044219054221023    3    3    3    3
 0.1452449651902362    4    1    1    1
 -0.01876034940966773    4    1    2    1
 0.01242355573892642    4    1    2    2
 -0.0008526057648725746    4    1    3    1
 -0.0005610176645093322    4    1    3    2
 0.005232417791522955    4    1    3    3
 0.02388651744615023    4    1    4    1
 -0.1163588837440468    4    2    1    1
 0.007568681104172366    4    2    2    1
 -0.008563167757705834    4    2    2    2
 -0.0004235329331775013    4    2    3    1
 -0.002655836990907805    4    2    3    2
 0.003326605647952318    4    2    3    3
 0.02119595931266043    4    2    4    1
 0.1305267270391953    4    2    4    2
 -0.01777708788137736    4    3    1    1
 0.0004687540588155252    4    3    2    1
 -0.008721091215072892    4    3    2    2
 -0.002506173915058416    4    3    3    1
 0.01912680881566231    4    3    3    2
 -0.004289492560704205    4    3    3    3
 0.0005643568564092527    4    3    4    1
 0.004924376995814729    4    3    4    2
 0.04506099897407694    4    3    4    3
 0.963667749840784    4    4    1    1
 -0.0116035921844861    4    4    2    1
 0.6729417252284702    4    4    2    2
 0.0002194600962422145    4    4    3    1
 0.002646998231590354    4    4    3    2
 0.5769060220470578    4    4    3    3
 -0.00940680458529326    4    4    4    1
 -0.0897083365508639    4    4    4    2
 -0.009459858964334171    4    4    4    3
 0.7301932330895661    4    4    4    4
 0.01567771863098668    5    1    1    1
 -0.001803432937421111    5    1    2    1
 0.001852578036390101    5    1    2    2
 -4.494858194461434e-05    5    1    3    1
 1.503232205853795e-05    5    1    3    2
 0.0005272375867097399    5    1    3    3
 0.000598337582410621    5    1    4    1
 -0.000457585516436081    5    1    4    2
 -1.066339875976009e-05    5    1    4    3
 0.0007111539951199116    5    1    4    4
 0.02513872710736945    5    1    5    1
 -0.008590243459060056    5    2    1    1
 0.0009833696479410539    5    2    2    1
 0.002045183035105351    5    2    2    2
 1.54445193641415e-05    5    2    3    1
 5.305954537424337e-05    5    2    3    2
 -0.0003889930071705264    5    2    3    3
 -0.0003958590539353121    5    2    4    1
 -0.0004834853713760904    5    2    4    2
 5.116548039660225e-05    5    2    4    3
 -0.001779398702937426    5    2    4    4
 0.03231986705761174    5    2    5    1
 0.1474567235249851    5    2    5    2
 -0.0004425441450375959    5    3    1    1
 3.244556650984728e-05    5    3    2    1
 -0.0001272063523445358    5    3    2    2
 -0.0004008977071936289    5    3    3    1
 -0.0001011284908464817    5    3    3    2
 -2.490548619262343e-05    5    3    3    3
 -1.361310819618053e-06    5    3    4    1
 -7.311483099568584e-05    5    3    4    2
 0.001200653723644245    5    3    4    3
 -0.0002699090489585197    5    3    4    4
 0.000618160741567493    5    3    5    1
 0.002086599217849701    5    3    5    2
 0.02842306026427166    5    3    5    3
 0.003973496170560593    5    4    1    1
 -0.0004083675778496815    5    4    2    1
 0.0002770754492630538    5    4    2    2
 1.054578015465227e-05    5    4    3    1
 -7.693214342764822e-05    5    4    3    2
 0.001910127353870347    5    4    3    3
 -0.0005300253509903059    5    4    4    1
 -0.001275183746349859    5    4    4    2
 -0.0002260515725167431    5    4    4    3
 0.002429605516202836    5    4    4    4
 -0.01022716204081083    5    4    5    1
 -0.03743404286324781    5    4    5    2
 -0.001601962934833603    5    4    5    3
 0.04770206564442014    5    4    5    4
 1.08999278962094    5    5    1    1
 -0.01176078837850811    5    5    2    1
 0.7416810654429299    5    5    2    2
 -0.0002253005281927077    5    5    3    1
 -0.0002495360400792855    5    5    3    2
 0.6082917450434921    5    5    3    3
 0.00390952895212536    5    5    4    1
 -0.061184318106052    5    5    4    2
 -0.01004789792622769    5    5    4    3
 0.6951031610558687    5    5    4    4
 -0.001692132215958523    5    5    5    1
 -0.01191909842216558    5    5    5    2
 -0.0004168873926597148    5    5    5    3
 0.004584864245742191    5    5    5    4
 0.8465734654287327    5    5    5    5
 0.2167296772463679    6    1    1    1
 -0.03265729385795774    6    1    2    1
 0.004050702970937356    6    1    2    2
 -0.004847091876706437    6    1    3    1
 -0.006421016585107592    6    1    3    2
 0.0004460954501317565    6    1    3    3
 -0.0005256241181985962    6    1    4    1
 -0.01681512576030478    6    1    4    2
 0.0004256420008851259    6    1    4    3
 0.0130092140352454    6    1    4    4
 0.0001280116659807666    6    1    5    1
 -0.001433649407049249    6    1    5    2
 0.0001283446759766135    6    1    5    3
 0.0008902544894635626    6    1    5    4
 0.005596455686884702    6    1    5    5
 0.02513969877084807    6    1    6    1
 -0.2795511352109448    6    2    1    1
 0.007203667263980833    6    2    2    1
 -0.1328714560098467    6    2    2    2
 -0.004221700031833179    6    2    3    1
 -0.01841176942855163    6    2    3    2
 -0.0752277838732163    6    2    3    3
 -0.01497979176724368    6    2    4    1
 -0.02269117197142322    6    2    4    2
 0.00910928057909074    6    2    4    3
 -0.08863716449405114    6    2    4    4
 -0.001502558863029221    6    2    5    1
 -0.002681040359172449    6    2    5    2
 0.0007896609760309828    6    2    5    3
 0.001744354438287867    6    2    5    4
 -0.143044005658841    6    2    5    5
 0.005303540730930291    6    2    6    1
 0.08172872051967887    6    2    6    2
 -0.1184329835321333    6    3    1    1
 0.002308658338222823    6    3    2    1
 -0.05587552677159696    6    3    2    2
 -0.003223246012764095    6    3    3    1
 0.02984537183145637    6    3    3    2
 -0.03432238383784818    6    3    3    3
 9.049461978098457e-05    6    3    4    1
 0.0200713451282219    6    3    4    2
 0.02800577084426618    6    3    4    3
 -0.049465439996473    6    3    4    4
 1.156554325324694e-05    6    3    5    1
 0.001647423826564968    6    3    5    2
 0.0008506944986770628    6    3    5    3
 -0.0002484855364779249    6    3    5    4
 -0.06364394507486559    6    3    5    5
 -0.0004420570263700578    6    3    6    1
 0.02906831594560109    6    3    6    2
 0.07430458781583736    6    3    6    3
 -0.1849024465861102    6    4    1    1
 0.001792763658511081    6    4    2    1
 -0.08846169531435844    6    4    2    2
 0.0024897342889585    6    4    3    1
 0.01978522966416179    6    4    3    2
 -0.03492665239976631    6    4    3    3
 -0.004030063851171961    6    4    4    1
 0.01777898403859947    6    4    4    2
 0.003897518205325334    6    4    4    3
 -0.09243520759930857    6    4    4    4
 0.0002895199993477265    6    4    5    1
 0.00229466903283699    6    4    5    2
 0.0002755671247299889    6    4    5    3
 -0.0004767706080877921    6    4    5    4
 -0.09653235232326689    6    4    5    5
 2.156073624849699e-05    6    4    6    1
 0.04686319856190065    6    4    6    2
 0.03369247561530751    6    4    6    3
 0.05856533571378862    6    4    6    4
 -0.01386292601032997    6    5    1    1
 -4.953893518909291e-05    6    5    2    1
 -0.008291282967882813    6    5    2    2
 0.0002471156883664266    6    5    3    1
 0.001701953112206582    6    5    3    2
 -0.004397901720368768    6    5    3    3
 0.0004161558396500871    6    5    4    1
 0.002376841088925773    6    5    4    2
 0.0004844414920312702    6    5    4    3
 -0.006450863271919503    6    5    4    4
 -0.0136093847135106    6    5    5    1
 -0.05080826004029663    6    5    5    2
 -0.007828541888449088    6    5    5    3
 -0.001244142532321209    6    5    5    4
 -0.0060151558108111    6    5    5    5
 0.0001221849769719363    6    5    6    1
 0.00358039914060763    6    5    6    2
 0.001717145697698898    6    5    6    3
 0.001143382494334685    6    5    6    4
 0.0310893663590321    6    5    6    5
 0.7029213079062586    6    6    1    1
 -0.006871806599559518    6    6    2    1
 0.5411727178398208    6    6    2    2
 0.004756665235772351    6    6    3    1
 0.0474925295238791    6    6    3    2
 0.5138942229942008    6    6    3    3
 0.01517780057176943    6    6    4    1
 0.04537857454055336    6    6    4    2
 0.02346892820804165    6    6    4    3
 0.4981590739687381    6    6    4    4
 0.001495051808701434    6    6    5    1
 0.003482017811960537    6    6    5    2
 0.0009518891423476263    6    6    5    3
 -0.0003357664741531437    6    6    5    4
 0.5234084242694127    6    6    5    5
 -0.006177795877144434    6    6    6    1
 -0.07314695251398599    6    6    6    2
 0.016532492035993    6    6    6    3
 -0.01840619428494111    6    6    6    4
 -0.003703843736765243    6    6    6    5
 0.5273189516013385    6    6    6    6
 -0.07159254695692943    7    1    1    1
 0.01101994424192735    7    1    2    1
 -0.0006990480015922944    7    1    2    2
 -0.01408362475886244    7    1    3    1
 -0.0215185253123221    7    1    3    2
 -0.001089430064265167    7    1    3    3
 -0.0007451306945505316    7    1    4    1
 0.004178719600476395    7    1    4    2
 0.003394450591396528    7    1    4    3
 -0.003682345242234961    7    1    4    4
 -9.199861759816931e-05    7    1    5    1
 0.0003996980027231762    7    1    5    2
 0.0005167689377282076    7    1    5    3
 -0.0002335879064052445    7    1    5    4
 -0.001803396181371794    7    1    5    5
 -0.00136450378041834    7    1    6    1
 0.005150161591542431    7    1    6    2
 0.004121711067311674    7    1    6    3
 -0.003141809234020829    7    1    6    4
 -0.0003848924223859555    7    1    6    5
 -0.005768471465217253    7    1    6    6
 0.02014155288287201    7    1    7    1
 0.09324506856755246    7    2    1    1
 -0.002309006360108699    7    2    2    1
 0.04326222334933298    7    2    2    2
 -0.01416949132786685    7    2    3    1
 -0.05012140851969567    7    2    3    2
 0.02063591838026507    7    2    3    3
 0.003766266167660793    7    2    4    1
 0.001214095649261622    7    2    4    2
 0.02336201805585509    7    2    4    3
 0.03149993181628868    7    2    4    4
 0.0004427735398333618    7    2    5    1
 0.0005600758752849008    7    2    5    2
 0.00211889876101511    7    2    5    3
 -0.0004557297825478109    7    2    5    4
 0.04640137609321565    7    2    5    5
 0.005102407560851034    7    2    6    1
 -0.004701581587269932    7    2    6    2
 0.01930933162633936    7    2    6    3
 -0.02052591294886697    7    2    6    4
 -0.001896644398143201    7    2    6    5
 0.01818428508694123    7    2    6    6
 0.01682891043714555    7    2    7    1
 0.06253977359095737    7    2    7    2
 -0.3529496259085841    7    3    1    1
 0.00688140367491569    7    3    2    1
 -0.155406747232968    7    3    2    2
 0.0006146834700789622    7    3    3    1
 -0.01284537666807382    7    3    3    2
 -0.1014186743405791    7    3    3    3
 0.0006328715500570537    7    3    4    1
 0.06122689817096556    7    3    4    2
 -0.001684181752839482    7    3    4    3
 -0.1514834054975787    7    3    4    4
 1.435034876280427e-05    7    3    5    1
 0.004425307710099223    7    3    5    2
 -8.566420317233364e-05    7    3    5    3
 -0.0007428052814991208    7    3    5    4
 -0.1838411557750711    7    3    5    5
 -0.005311532631543571    7    3    6    1
 0.06371807238621517    7    3    6    2
 0.02617725926316723    7    3    6    3
 0.05825961035118568    7    3    6    4
 0.002568080723535906    7    3    6    5
 -0.05191076614222887    7    3    6    6
 0.0009111511397264626    7    3    7    1
 -0.02957740886017639    7    3    7    2
 0.136042848995281    7    3    7    3
 0.03270780610203798    7    4    1    1
 -0.0002644166082919604    7    4    2    1
 0.01245735659450865    7    4    2    2
 0.007219126876885172    7    4    3    1
 0.05809661117714723    7    4    3    2
 0.006688413432586748    7    4    3    3
 0.00168889442292479    7    4    4    1
 0.0003461615265402775    7    4    4    2
 -0.00194561832878676    7    4    4    3
 0.01540198898758254    7    4    4    4
 -8.210768459454176e-05    7    4    5    1
 -0.0004332775046067188    7    4    5    2
 0.0002244384887889243    7    4    5    3
 -0.0001009530075294586    7    4    5    4
 0.01557197340243524    7    4    5    5
 -0.003791803982586894    7    4    6    1
 -0.0179705099726758    7    4    6    2
 0.0300341069674041    7    4    6    3
 0.005508735407818287    7    4    6    4
 0.0007909578319147684    7    4    6    5
 0.02994962915841797    7    4    6    6
 -0.008922759098870468    7    4    7    1
 -0.01179013278736384    7    4    7    2
 -0.02295144379671381    7    4    7    3
 0.05089819302515425    7    4    7    4
 0.003104056709162305    7    5    1    1
 2.805700312132015e-05    7    5    2    1
 0.001741001357339389    7    5    2    2
 0.0007017398711072659    7    5    3    1
 0.004336928564061896    7    5    3    2
 0.001140672968364379    7    5    3    3
 -0.000100719333937017    7    5    4    1
 -0.0005092926136087279    7    5    4    2
 0.0005238922172026012    7    5    4    3
 0.001325921661194389    7    5    4    4
 0.004475487669445563    7    5    5    1
 0.01674596837441655    7    5    5    2
 -0.0211304504472595    7    5    5    3
 -0.001197318272455694    7    5    5    4
 0.0009941331471360704    7    5    5    5
 -0.0003952239137661205    7    5    6    1
 -0.001795110838006299    7    5    6    2
 0.0015261168066035    7    5    6    3
 0.0006539854046771894    7    5    6    4
 -0.001533957823674208    7    5    6    5
 0.002629909684464035    7    5    6    6
 -0.0008386443154843617    7    5    7    1
 -0.001489977420979838    7    5    7    2
 -0.001191284334196475    7    5    7    3
 0.002233078420786994    7    5    7    4
 0.02325209417096599    7    5    7    5
 0.05574024059622894    7    6    1    1
 -0.001040045218175389    7    6    2    1
 0.02331363628313217    7    6    2    2
 0.007453786625955929    7    6    3    1
 0.0728000141429164    7    6    3    2
 0.02857944226880902    7    6    3    3
 -0.00341305569595439    7    6    4    1
 -0.01839302156409759    7    6    4    2
 0.03544890428776907    7    6    4    3
 0.03363846736698888    7    6    4    4
 -0.0003541987929337321    7    6    5    1
 -0.001836860320011532    7    6    5    2
 0.001171983290924775    7    6    5    3
 0.0008643660261627992    7    6    5    4
 0.03077425830094884    7    6    5    5
 -0.0004107750253719777    7    6    6    1
 -0.005217706038875352    7    6    6    2
 0.04014890748080725    7    6    6    3
 0.0103018004869727    7    6    6    4
 0.0009209601298829784    7    6    6    5
 0.05667662549724467    7    6    6    6
 -0.009688264267500966    7    6    7    1
 0.000822250394146878    7    6    7    2
 -0.03697558994010687    7    6    7    3
 0.03820927750155397    7    6    7    4
 0.002110239660507056    7    6    7    5
 0.07839600517630971    7    6    7    6
 0.8042714618153171    7    7    1    1
 -0.008623346114970306    7    7    2    1
 0.5860239041850603    7    7    2    2
 -0.00554315775930211    7    7    3    1
 -0.0528284788986175    7    7    3    2
 0.5602947533625178    7    7    3    3
 0.004132300565937066    7    7    4    1
 -0.008035004155303851    7    7    4    2
 -0.02748215448796307    7    7    4    3
 0.5524992968054855    7    7    4    4
 0.0004685180070234514    7    7    5    1
 -0.001116530796692839    7    7    5    2
 -0.0008862784752138666    7    7    5    3
 0.002471283341137711    7    7    5    4
 0.5764577558355706    7    7    5    5
 0.005538824557466052    7    7    6    1
 -0.06300757766990021    7    7    6    2
 -0.06556676178878725    7    7    6    3
 -0.03858917948294808    7    7    6    4
 -0.004904716112087145    7    7    6    5
 0.4634894362565862    7    7    6    6
 0.005393875248562889    7    7    7    1
 0.02087130090687371    7    7    7    2
 -0.07631448392469163    7    7    7    3
 -0.02655496016522093    7    7    7    4
 -0.0006631743374234601    7    7    7    5
 -0.02625815357071947    7    7    7    6
 0.586836748544355    7    7    7    7
 -0.04318581177235151    8    1    1    1
 0.006898321277037672    8    1    2    1
 0.0003799314619981838    8    1    2    2
 -0.001684432519868355    8    1    3    1
 -0.0027066737080893    8    1    3    2
 0.0002662559541121695    8    1    3    3
 0.002062268428200589    8    1    4    1
 0.005847319086140025    8    1    4    2
 0.0005892718300873571    8    1    4    3
 -0.004000920833495048    8    1    4    4
 0.004256786123234352    8    1    5    1
 0.005621507360663908    8    1    5    2
 0.0001768615260409237    8    1    5    3
 -0.001980610598428425    8    1    5    4
 -0.001430325338176932    8    1    5    5
 -0.005454439898450523    8    1    6    1
 -0.001600080952621909    8    1    6    2
 0.0008488016075848238    8    1    6    3
 -0.0008587863006840242    8    1    6    4
 -0.002286097431816543    8    1    6    5
 0.001672755294550456    8    1    6    6
 0.003928030706585493    8    1    7    1
 0.002451344435650914    8    1    7    2
 0.001263842051763774    8    1    7    3
 -0.0007503275061282235    8    1    7    4
 0.0006468286181153125    8    1    7    5
 -0.002020715548066401    8    1    7    6
 0.000296992365145367    8    1    7    7
 0.002742652865235556    8    1    8    1
 0.06474126090477528    8    2    1    1
 -0.001226327073486111    8    2    2    1
 0.03356186630805413    8    2    2    2
 -0.001817746350486877    8    2    3    1
 -0.005765868903226895    8    2    3    2
 0.02086473368920649    8    2    3    3
 0.004869784604289424    8    2    4    1
 0.009726939971206845    8    2    4    2
 0.003307938236191383    8    2    4    3
 0.01679066120349245    8    2    4    4
 0.004436479439311854    8    2    5    1
 0.01426573035046992    8    2    5    2
 0.0008180530940314079    8    2    5    3
 -0.006403748621525928    8    2    5    4
 0.032052114367923    8    2    5    5
 -0.001333270300186192    8    2    6    1
 -0.01767223015017387    8    2    6    2
 -0.001247273173518832    8    2    6    3
 -0.01145469320418406    8    2    6    4
 -0.00706896953290797    8    2    6    5
 0.02209813813575938    8    2    6    6
 0.002422596089225481    8    2    7    1
 0.01256778926490977    8    2    7    2
 -0.01505641753004122    8    2    7    3
 0.001083432263488642    8    2    7    4
 0.002019021579146964    8    2    7    5
 -0.0001415652849313059    8    2    7    6
 0.01767082396649249    8    2    7    7
 0.001839302619339555    8    2    8    1
 0.01001826550082668    8    2    8    2
 -0.04254655913439947    8    3    1    1
 0.0008483410660399574    8    3    2    1
 -0.01770006225560746    8    3    2    2
 0.001044791190988142    8    3    3    1
 4.967555261928204e-05    8    3    3    2
 -0.01137987557661038    8    3    3    3
 0.0002497291607914002    8    3    4    1
 0.009004128828086775    8    3    4    2
 -0.001546480998822923    8    3    4    3
 -0.01802578772011087    8    3    4    4
 0.0001684947681820938    8    3    5    1
 0.001482466288664957    8    3    5    2
 -0.00018871250616744    8    3    5    3
 -0.0003449513887593328    8    3    5    4
 -0.02169989764054813    8    3    5    5
 -0.001124056379616637    8    3    6    1
 0.005798580309709782    8    3    6    2
 -0.001649896918531999    8    3    6    3
 0.006064380997550414    8    3    6    4
 -0.0008449546044665976    8    3    6    5
 -0.005636727385121272    8    3    6    6
 -0.0009763618668272597    8    3    7    1
 -0.008501387982632169    8    3    7    2
 0.01810167324962419    8    3    7    3
 -0.006562414809271849    8    3    7    4
 -0.003180379159262128    8    3    7    5
 -0.005284253043492838    8    3    7    6
 -0.008899236890794027    8    3    7    7
 9.604647963743006e-05    8    3    8    1
 -0.002877889919144529    8    3    8    2
 0.009032317268732147    8    3    8    3
 0.08988934557014472    8    4    1    1
 -0.001503486045889099    8    4    2    1
 0.04183769761274397    8    4    2    2
 0.0009395620599828468    8    4    3    1
 0.008569210151668418    8    4    3    2
 0.02609596271851911    8    4    3    3
 -0.0001157063455169478    8    4    4    1
 -0.01482252753849677    8    4    4    2
 -0.0009416748642241523    8    4    4    3
 0.04930452534119867    8    4    4    4
 -0.002148190073182679    8    4    5    1
 -0.01129914053493845    8    4    5    2
 -0.0002138757449572269    8    4    5    3
 0.006021341444922765    8    4    5    4
 0.0486706003916584    8    4    5    5
 0.0007242177600569815    8    4    6    1
 -0.01635912888300299    8    4    6    2
 -0.00361204138000072    8    4    6    3
 -0.01665366523490575    8    4    6    4
 0.0002173883938130308    8    4    6    5
 0.02329690823859382    8    4    6    6
 -0.0015070515400773    8    4    7    1
 0.003596699576107599    8    4    7    2
 -0.02738153248523081    8    4    7    3
 0.01001568386295165    8    4    7    4
 -7.042482247316506e-05    8    4    7    5
 0.008469285269515387    8    4    7    6
 0.01957693407518562    8    4    7    7
 -0.0008150384652020177    8    4    8    1
 0.004347459305525832    8    4    8    2
 -0.004480191647874033    8    4    8    3
 0.01346996717070706    8    4    8    4
 0.116481705322982    8    5    1    1
 -0.002040052992652642    8    5    2    1
 0.05864482580868639    8    5    2    2
 0.0001294194221002795    8    5    3    1
 0.001699911482435136    8    5    3    2
 0.0386849720356545    8    5    3    3
 1.205996778650751e-05    8    5    4    1
 -0.01393550747555263    8    5    4    2
 -0.001066770497259636    8    5    4    3
 0.05547318832408283    8    5    4    4
 0.002509013902315456    8    5    5    1
 0.008550341159688739    8    5    5    2
 -0.002492324579670419    8    5    5    3
 0.003119859188427621    8    5    5    4
 0.07525272734163416    8    5    5    5
 0.001174751125429228    8    5    6    1
 -0.0198738245001945    8    5    6    2
 -0.008679267528550971    8    5    6    3
 -0.01478428400069379    8    5    6    4
 -0.007041997593392087    8    5    6    5
 0.02939279637539199    8    5    6    6
 -0.000555469037731172    8    5    7    1
 0.006497330879163839    8    5    7    2
 -0.02850459594620695    8    5    7    3
 0.003432797011039368    8    5    7    4
 0.004621238105779413    8    5    7    5
 0.005362328961248244    8    5    7    6
 0.03524422280395446    8    5    7    7
 5.946269018746139e-05    8    5    8    1
 0.005761280411382709    8    5    8    2
 -0.003990299871834697    8    5    8    3
 0.008087601744180706    8    5    8    4
 0.0128704030057901    8    5    8    5
 -0.09457816848581226    8    6    1    1
 0.001357247686222577    8    6    2    1
 -0.05839619382958929    8    6    2    2
 0.0005420179447518925    8    6    3    1
 0.004736364229081985    8    6    3    2
 -0.04203570510557741    8    6    3    3
 -0.003860474464302021    8    6    4    1
 -0.009004616853127244    8    6    4    2
 0.002658807252092079    8    6    4    3
 -0.04900258076401748    8    6    4    4
 -0.003003932551642589    8    6    5    1
 -0.01463358762178323    8    6    5    2
 -0.001848092643599702    8    6    5    3
 0.0003257452216193958    8    6    5    4
 -0.05530835971569328    8    6    5    5
 0.001127399577426907    8    6    6    1
 0.0204783225790551    8    6    6    2
 0.008916184358724349    8    6    6    3
 0.01448100885779171    8    6    6    4
 0.005122635679657521    8    6    6    5
 -0.03500017504826568    8    6    6    6
 -0.0007801683514323155    8    6    7    1
 -0.006084995404141666    8    6    7    2
 0.01334286267268218    8    6    7    3
 -0.0001067625829463001    8    6    7    4
 -0.000433130304307814    8    6    7    5
 0.002804317369815738    8    6    7    6
 -0.03924087948945865    8    6    7    7
 -0.001205303936638617    8    6    8    1
 -0.003611900233907674    8    6    8    2
 0.002090592735695399    8    6    8    3
 -0.0009292497608937622    8    6    8    4
 -0.006944489561041955    8    6    8    5
 0.01860286244504959    8    6    8    6
 0.09445890631168208    8    7    1    1
 -0.001422950365421118    8    7    2    1
 0.05680353062075083    8    7    2    2
 -0.001802152111725919    8    7    3    1
 -0.01456095282420618    8    7    3    2
 0.04671573508014566    8    7    3    3
 0.001302167117600854    8    7    4    1
 -0.00223077857790972    8    7    4    2
 -0.00954695979581946    8    7    4    3
 0.0505353998228281    8    7    4    4
 0.0009199502680229993    8    7    5    1
 0.003634309011687436    8    7    5    2
 -0.006002628447021423    8    7    5    3
 -0.0001536523076871005    8    7    5    4
 0.05655036609585824    8    7    5    5
 0.0009175919642251624    8    7    6    1
 -0.01388441168403769    8    7    6    2
 -0.01051172457755038    8    7    6    3
 -0.01186050034170285    8    7    6    4
 -0.001057231976410345    8    7    6    5
 0.02758759267815989    8    7    6    6
 0.001941659731884546    8    7    7    1
 0.006284207089955252    8    7    7    2
 -0.01851557151007728    8    7    7    3
 -0.002742064274210124    8    7    7    4
 0.002386877889496529    8    7    7    5
 -0.006012403643190991    8    7    7    6
 0.04599781701277071    8    7    7    7
 0.0004367301948009128    8    7    8    1
 0.003012991262816398    8    7    8    2
 0.003435207930595744    8    7    8    3
 0.003801607023427432    8    7    8    4
 0.007202664224693672    8    7    8    5
 -0.009054965064852675    8    7    8    6
 0.02058319084821759    8    7    8    7
 0.3290310672489509    8    8    1    1
 -0.0007699430109979252    8    8    2    1
 0.3138107284441962    8    8    2    2
 -0.0007977640066292092    8    8    3    1
 -0.01271090224396958    8    8    3    2
 0.3188462011030802    8    8    3    3
 0.003120003233455633    8    8    4    1
 0.02977224255352066    8    8    4    2
 -0.006527829348104874    8    8    4    3
 0.3004953005373407    8    8    4    4
 0.001615730717345122    8    8    5    1
 0.01116038770005592    8    8    5    2
 -0.002099504873684664    8    8    5    3
 0.00408370988083566    8    8    5    4
 0.2987414519286226    8    8    5    5
 -0.001136285613951196    8    8    6    1
 -0.006591316996938962    8    8    6    2
 -0.004750279388352866    8    8    6    3
 0.01171363215633241    8    8    6    4
 -0.003753527256093114    8    8    6    5
 0.3161626709196484    8    8    6    6
 0.001179806230668232    8    8    7    1
 -0.001879958528368916    8    8    7    2
 0.02104160664431014    8    8    7    3
 -0.01095565755595801    8    8    7    4
 0.001731306281812797    8    8    7    5
 -0.01393682833938831    8    8    7    6
 0.3378681617950045    8    8    7    7
 0.001018253886618495    8    8    8    1
 -0.001656996462774369    8    8    8    2
 0.006418213460117205    8    8    8    3
 -0.01189693378613629    8    8    8    4
 0.0002208109011226416    8    8    8    5
 -0.009767621873398989    8    8    8    6
 0.003037853936045025    8    8    8    7
 0.350599129186047    8    8    8    8
 0.01405557378723179    9    1    1    1
 -0.001768953604541107    9    1    2    1
 0.001292799480559148    9    1    2    2
 0.001666072171167842    9    1    3    1
 0.002587632398359539    9    1    3    2
 0.0006441987638770217    9    1    3    3
 0.002589960007532881    9    1    4    1
 0.00232827241034527    9    1    4    2
 -0.0003297165257475428    9    1    4    3
 -0.001022206707083878    9    1    4    4
 0.002485710984027958    9    1    5    1
 0.002976518454015524    9    1    5    2
 -5.903292704544895e-07    9    1    5    3
 -0.001060338713906416    9    1    5    4
 0.0002073321036843964    9    1    5    5
 -0.001056670801000586    9    1    6    1
 -0.002417795978320421    9    1    6    2
 -0.0004103937731820615    9    1    6    3
 -2.936567447299865e-05    9    1    6    4
 -0.00117600929792263    9    1    6    5
 0.002575969175018373    9    1    6    6
 -0.002213142699226301    9    1    7    1
 -0.001653280870363886    9    1    7    2
 0.0002255566764720653    9    1    7    3
 0.001300516872808323    9    1    7    4
 0.0005119741448709359    9    1    7    5
 0.0007007220925893877    9    1    7    6
 -0.0003766260974744453    9    1    7    7
 0.0004449340039347139    9    1    8    1
 0.0006929113426133119    9    1    8    2
 0.0001988486015788128    9    1    8    3
 -8.063931936985252e-05    9    1    8    4
 0.0002399104521417742    9    1    8    5
 -0.0006240087172898574    9    1    8    6
 -4.843869811997237e-05    9    1    8    7
 0.0004106960227178192    9    1    8    8
 0.000792942640548783    9    1    9    1
 -0.01576851724455575    9    2    1    1
 0.0006817210385435807    9    2    2    1
 -0.007063762962743434    9    2    2    2
 0.001698529439838036    9    2    3    1
 0.006174038775134561    9    2    3    2
 -0.008181522711131834    9    2    3    3
 0.001695980405500297    9    2    4    1