 &FCI NORB=  28,NELEC=28,MS2=0,
  ORBSYM=1,1,1,1,1,1,1,1,1,1,1,1,1,1,1,1,1,1,1,1,1,1,1,1,1,1,1,1,
  ISYM=1,
 &END
 0.6161068504931935    1    1    1    1
 0.1246959328691672    2    1    1    1
 0.1088688219628061    2    1    2    1
 0.3222188721924537    2    2    1    1
 -0.1283875223178294    2    2    2    1
 0.6273059067400056    2    2    2    2
 0.0171243232271952    3    1    1    1
 0.009004032040456109    3    1    2    1
 -0.005048010240056803    3    1    2    2
 0.008302307479001189    3    1    3    1
 0.01140213480164422    3    2    1    1
 -0.00519740072160801    3    2    2    1
 0.02331234844423721    3    2    2    2
 0.003119673890467364    3    2    3    1
 0.004089945009818814    3    2    3    2
 0.175133636750792    3    3    1    1
 -0.005752657735781625    3    3    2    1
 0.1903705280801569    3    3    2    2
 -0.01174771800751562    3    3    3    1
 -0.0240773852186719    3    3    3    2
 0.6191942358007941    3    3    3    3
 -0.01495718310909817    4    1    1    1
 0.007062803114613024    4    1    2    1
 -0.01461646166186159    4    1    2    2
 0.001472183844393015    4    1    3    1
 -0.0002232844997820237    4    1    3    2
 -0.0006259030053095041    4    1    3    3
 0.04235928788657838    4    1    4    1
 0.01671180930231839    4    2    1    1
 0.01734585517473191    4    2    2    1
 -0.0267927804254763    4    2    2    2
 0.001907641769981913    4    2    3    1
 -0.0003951284475638591    4    2    3    2
 -0.004562846804721076    4    2    3    3
 0.006717770822470396    4    2    4    1
 0.01579921068411979    4    2    4    2
 0.008652120395623072    4    3    1    1
 0.0003750788282613339    4    3    2    1
 0.008336792552673999    4    3    2    2
 0.0002403190632243069    4    3    3    1
 -0.001452344981075515    4    3    3    2
 0.03706570707301485    4    3    3    3
 0.00144192318933976    4    3    4    1
 9.986296786741339e-05    4    3    4    2
 0.0105294639556584    4    3    4    3
 0.3094776946063414    4    4    1    1
 0.03217396791966508    4    4    2    1
 0.2271975200950421    4    4    2    2
 0.005865003759141581    4    4    3    1
 0.001841592343124    4    4    3    2
 0.2289901501512657    4    4    3    3
 -0.01042042999995965    4    4    4    1
 0.00743253726335898    4    4    4    2
 -0.005806185818369065    4    4    4    3
 0.2875566118969069    4    4    4    4
 -0.00554553239255402    5    1    1    1
 -0.01578608109349609    5    1    2    1
 0.01046748931290119    5    1    2    2
 0.002391938700428025    5    1    3    1
 0.0008507881916845838    5    1    3    2
 0.00708510950954796    5    1    3    3
 -0.04386484305268526    5    1    4    1
 -0.005956757178370955    5    1    4    2
 -0.001732911376530887    5    1    4    3
 0.01335318916785328    5    1    4    4
 0.05587112914772082    5    1    5    1
 -0.03087997236056222    5    2    1    1
 -0.0253359650452475    5    2    2    1
 0.03302693738128149    5    2    2    2
 -0.001135487785251015    5    2    3    1
 0.002980087018543956    5    2    3    2
 -0.002262031432963255    5    2    3    3
 -0.004740118932984005    5    2    4    1
 -0.01991007149507405    5    2    4    2
 -0.001903205991644684    5    2    4    3
 -0.009932323160469042    5    2    4    4
 0.004655356858024855    5    2    5    1
 0.03390158361143371    5    2    5    2
 0.01320082321300589    5    3    1    1
 -0.000441351428454125    5    3    2    1
 0.0145669630870096    5    3    2    2
 -0.001531124423557207    5    3    3    1
 -0.001247482485776007    5    3    3    2
 0.025937660618056    5    3    3    3
 -0.002611333469545855    5    3    4    1
 -0.002411254193191059    5    3    4    2
 0.006738609095757579    5    3    4    3
 -0.005319065071038678    5    3    4    4
 0.0003069413053138508    5    3    5    1
 0.001327588839860478    5    3    5    2
 0.007408494588198733    5    3    5    3
 -0.1705204136505096    5    4    1    1
 -0.02201358774760929    5    4    2    1
 -0.110808088096779    5    4    2    2
 -0.006052587134995235    5    4    3    1
 -0.009550854663765847    5    4    3    2
 0.0453353781686199    5    4    3    3
 0.02045307807338878    5    4    4    1
 -0.00204376197563383    5    4    4    2
 -0.01150444354420098    5    4    4    3
 -0.01044250898218162    5    4    4    4
 -0.00933355242658437    5    4    5    1
 0.007811662775483745    5    4    5    2
 -0.01430821556921335    5    4    5    3
 0.129607458790121    5    4    5    4
 0.3621490661703998    5    5    1    1
 0.02328446655147988    5    5    2    1
 0.2993424068559187    5    5    2    2
 0.004247348486989339    5    5    3    1
 0.006153987943837052    5    5    3    2
 0.2114083464292276    5    5    3    3
 -0.01687824253313438    5    5    4    1
 0.005653238362573709    5    5    4    2
 -0.003150282011936966    5    5    4    3
 0.2839874992727408    5    5    4    4
 0.01290625396950086    5    5    5    1
 -0.009000192324025139    5    5    5    2
 0.0014106190334861    5    5    5    3
 -0.05956162682077352    5    5    5    4
 0.3086767463496707    5    5    5    5
 -0.0007384771974126475    6    1    1    1
 0.003063258533449936    6    1    2    1
 -0.003974590657810515    6    1    2    2
 -0.001474648061637253    6    1    3    1
 -0.003309485294818613    6    1    3    2
 0.00859621598639757    6    1    3    3
 0.00987450541466805    6    1    4    1
 0.001647104643686567    6    1    4    2
 0.00136409141211445    6    1    4    3
 -0.001709150265968383    6    1    4    4
 -0.008720048337149766    6    1    5    1
 -0.01176693182034711    6    1    5    2
 -6.395197191889189e-07    6    1    5    3
 0.005050161570219714    6    1    5    4
 -0.003947069383517954    6    1    5    5
 0.01698089129009273    6    1    6    1
 0.003411506794300477    6    2    1    1
 0.001703694399910981    6    2    2    1
 0.0006094331103344987    6    2    2    2
 -0.002329623875449948    6    2    3    1
 0.006294756087954502    6    2    3    2
 -0.02237116828650598    6    2    3    3
 0.001017499585618829    6    2    4    1
 0.003376487542870237    6    2    4    2
 -0.002549639822809745    6    2    4    3
 -0.004955263998266029    6    2    4    4
 -0.01254406553646714    6    2    5    1
 0.02282777542914772    6    2    5    2
 0.0004514512620525428    6    2    5    3
 -0.007750299856212381    6    2    5    4
 0.003734606690356939    6    2    5    5
 -0.03833753163261838    6    2    6    1
 0.1125194329529951    6    2    6    2
 -0.001676477177725472    6    3    1    1
 -0.009198181110757526    6    3    2    1
 0.01995642276805206    6    3    2    2
 0.001139580496885298    6    3    3    1
 0.002815781462666461    6    3    3    2
 -0.0425554553393127    6    3    3    3
 -0.0003167358454754129    6    3    4    1
 -0.001842994099130828    6    3    4    2
 -0.002234485301428135    6    3    4    3
 -0.003969503518703337    6    3    4    4
 0.0003349852489073102    6    3    5    1
 0.00325792379929967    6    3    5    2
 -0.001585465264338828    6    3    5    3
 -0.005781496010443511    6    3    5    4
 -0.0001939827673743604    6    3    5    5
 -0.001581972065799092    6    3    6    1
 0.002519135025393712    6    3    6    2
 0.0109327669809108    6    3    6    3
 0.03819995659625564    6    4    1    1
 0.004566189749216308    6    4    2    1
 0.02588243442278309    6    4    2    2
 0.001353677876992986    6    4    3    1
 0.001068270033508378    6    4    3    2
 -0.007250547232524896    6    4    3    3
 -0.005078515647358537    6    4    4    1
 -0.0004108366132310709    6    4    4    2
 0.004068664226513559    6    4    4    3
 -0.000761504450371946    6    4    4    4
 0.002908690756306872    6    4    5    1
 -0.004237255155539396    6    4    5    2
 0.004233040422880877    6    4    5    3
 -0.03074693504586704    6    4    5    4
 0.009025444749485668    6    4    5    5
 0.002723305374776274    6    4    6    1
 -0.01046406617683373    6    4    6    2
 0.002511992511792568    6    4    6    3
 0.0121202319033703    6    4    6    4
 -0.02389635050588519    6    5    1    1
 -0.0405452430627638    6    5    2    1
 0.07360593391163761    6    5    2    2
 -0.002480865707385452    6    5    3    1
 0.004350795279242557    6    5    3    2
 -0.007301258046079171    6    5    3    3
 5.565322377496825e-05    6    5    4    1
 -0.008588817642192969    6    5    4    2
 0.003017949832535221    6    5    4    3
 -0.02106491639176996    6    5    4    4
 -7.55785004904222e-05    6    5    5    1
 0.01414919593997356    6    5    5    2
 0.003561387474680171    6    5    5    3
 -0.01089369408713762    6    5    5    4
 -0.006945710751074425    6    5    5    5
 -0.003847865998647192    6    5    6    1
 0.01065824620736878    6    5    6    2
 0.006514262468660351    6    5    6    3
 -0.0005820542047987646    6    5    6    4
 0.02877851336264178    6    5    6    5
 0.2555966052434848    6    6    1    1
 -0.1291771030982721    6    6    2    1
 0.5616764431618008    6    6    2    2
 -0.006717794135389898    6    6    3    1
 0.01559721587147544    6    6    3    2
 0.2272611787877629    6    6    3    3
 -0.01408259792853895    6    6    4    1
 -0.02819131055208614    6    6    4    2
 0.01087540951345267    6    6    4    3
 0.2105113920419005    6    6    4    4
 0.01500769834033429    6    6    5    1
 0.03115163695311648    6    6    5    2
 0.01492971609769246    6    6    5    3
 -0.0750808004978543    6    6    5    4
 0.2673932312183629    6    6    5    5
 0.001191204376420206    6    6    6    1
 -0.01612831961373573    6    6    6    2
 0.01969693624568929    6    6    6    3
 0.02238628485452343    6    6    6    4
 0.07509006366666027    6    6    6    5
 0.5597960153446579    6    6    6    6
 -0.0006518261847325793    7    1    1    1
 0.001569929467465171    7    1    2    1
 -0.003920569648055574    7    1    2    2
 -0.00953010899107294    7    1    3    1
 -0.003789038253699031    7    1    3    2
 -0.003407818527252699    7    1    3    3
 -0.02163202860100585    7    1    4    1
 -0.01136035147493742    7    1    4    2
 -0.00300189106659996    7    1    4    3
 -0.003642816293107509    7    1    4    4
 0.0009207288752496646    7    1    5    1
 0.005992629059848717    7    1    5    2
 0.002895173896419064    7    1    5    3
 -0.005347706625508113    7    1    5    4
 0.001449568444373083    7    1    5    5
 -0.00285968967829934    7    1    6    1
 0.004186489219469674    7    1    6    2
 -0.0004607562671605342    7    1    6    3
 0.002468208086641284    7    1    6    4
 -0.001826320952359211    7    1    6    5
 -0.003016004063594049    7    1    6    6
 0.0814713536405697    7    1    7    1
 0.009388638238701136    7    2    1    1
 -0.0001890778168726256    7    2    2    1
 0.003720267518099558    7    2    2    2
 -0.003758166651695505    7    2    3    1
 -0.000647508959163217    7    2    3    2
 -0.005578486553009904    7    2    3    3
 -0.01434794577770001    7    2    4    1
 0.005998162487264902    7    2    4    2
 -0.001422679778513565    7    2    4    3
 0.00382422765484583    7    2    4    4
 0.008409892828846986    7    2    5    1
 -0.01322401143950957    7    2    5    2
 -0.000113837872680034    7    2    5    3
 -0.00828318680763984    7    2    5    4
 0.008500955513275057    7    2    5    5
 2.231023982577797e-05    7    2    6    1
 -0.002532457820893769    7    2    6    2
 -0.0009338982338379249    7    2    6    3
 0.002233045456863654    7    2    6    4
 -0.002267603809244344    7    2    6    5
 0.001936436275321197    7    2    6    6
 0.02588031419467442    7    2    7    1
 0.02333222579838345    7    2    7    2
 -0.03568104595577694    7    3    1    1
 -0.0150765034594316    7    3    2    1
 -0.001096486636432146    7    3    2    2
 -0.002132706483499178    7    3    3    1
 -0.002266530206881538    7    3    3    2
 0.02174405953998636    7    3    3    3
 -0.003105524158824043    7    3    4    1
 -0.003607595677043119    7    3    4    2
 0.004870756820898195    7    3    4    3
 -0.01615866638347149    7    3    4    4
 0.003576311813180775    7    3    5    1
 0.002510014718581464    7    3    5    2
 0.00383094800810404    7    3    5    3
 0.006648077488351456    7    3    5    4
 -0.016420331848657    7    3    5    5
 0.0008590544603735644    7    3    6    1
 -0.004589130899628678    7    3    6    2
 0.002768204162454951    7    3    6    3
 0.001117270978307474    7    3    6    4
 0.005384119085890681    7    3    6    5
 0.008156938774131903    7    3    6    6
 0.004984078882780299    7    3    7    1
 0.0007177993561599286    7    3    7    2
 0.020301588714391    7    3    7    3
 -0.08188669054164345    7    4    1    1
 -0.04272918147456092    7    4    2    1
 0.01785576561245525    7    4    2    2
 -0.007094933645337713    7    4    3    1
 -0.002387793152045244    7    4    3    2
 0.02550057949894626    7    4    3    3
 0.001197490677129289    7    4    4    1
 -0.004959836898791113    7    4    4    2
 -0.002431006962177266    7    4    4    3
 -0.01470210315200561    7    4    4    4
 0.003652986133153849    7    4    5    1
 0.007212982952662277    7    4    5    2
 -0.0008515156900622625    7    4    5    3
 0.03549268087915335    7    4    5    4
 -0.01632567962527508    7    4    5    5
 0.001628728067472704    7    4    6    1
 -0.003425701665490938    7    4    6    2
 0.001729022258013377    7    4    6    3
 -0.008091155889156952    7    4    6    4
 0.0107927409933412    7    4    6    5
 0.0282204953874696    7    4    6    6
 -0.003299430253585907    7    4    7    1
 -0.0005629826367445471    7    4    7    2
 0.01077768808345273    7    4    7    3
 0.03453417499623478    7    4    7    4
 -0.002978974659912353    7    5    1    1
 0.02077830065818551    7    5    2    1
 -0.05136341198765599    7    5    2    2
 0.00290161220102853    7    5    3    1
 -0.002801465551946595    7    5    3    2
 0.01527011185234828    7    5    3    3
 0.002251099976158581    7    5    4    1
 0.002086114809581513    7    5    4    2
 -0.0006857057571108518    7    5    4    3
 0.01283271850895945    7    5    4    4
 0.0005783764229326823    7    5    5    1
 -0.001635020063007763    7    5    5    2
 -0.003207570216228602    7    5    5    3
 0.0177266674269634    7    5    5    4
 -0.00383064993810175    7    5    5    5
 -9.940657660646256e-05    7    5    6    1
 -0.002352323423811177    7    5    6    2
 -0.002773481165181529    7    5    6    3
 -0.003056240186203853    7    5    6    4
 -0.01322282506886876    7    5    6    5
 -0.04230920115079798    7    5    6    6
 -0.003711715994773828    7    5    7    1
 -0.004990931328056873    7    5    7    2
 -0.0007236135712873178    7    5    7    3
 -0.009984258813304713    7    5    7    4
 0.01932706888927108    7    5    7    5
 -0.008670268001600248    7    6    1    1
 0.0002558503405964553    7    6    2    1
 -0.008709414717093394    7    6    2    2
 -0.0007957756983977621    7    6    3    1
 -0.002402654400302002    7    6    3    2
 0.01810145707367471    7    6    3    3
 0.001638493324992925    7    6    4    1
 -8.464345658120685e-05    7    6    4    2
 0.003275042819360022    7    6    4    3
 -0.004800713289209141    7    6    4    4
 -0.001214592524658517    7    6    5    1
 -0.001857745065182987    7    6    5    2
 0.002061616380806319    7    6    5    3
 0.004364261394177771    7    6    5    4
 -0.007638193284991042    7    6    5    5
 0.002270197586411142    7    6    6    1
 -0.005795357138270971    7    6    6    2
 0.0004495334289853267    7    6    6    3
 0.003477949112279866    7    6    6    4
 -0.003961380695572554    7    6    6    5
 -0.002789384913459897    7    6    6    6
 -0.0005362788329234062    7    6    7    1
 -0.001048551859899387    7    6    7    2
 0.004101374891573788    7    6    7    3
 0.003781557268929733    7    6    7    4
 0.0004031068751143375    7    6    7    5
 0.007523959018874784    7    6    7    6
 0.4923973454540236    7    7    1    1
 0.08872823480443974    7    7    2    1
 0.2843892629680956    7    7    2    2
 0.01356858241588108    7    7    3    1
 0.005835728906251943    7    7    3    2
 0.2325621256865589    7    7    3    3
 -0.01298824663444479    7    7    4    1
 0.01012958549421454    7    7    4    2
 0.01379751590636797    7    7    4    3
 0.2804044792716647    7    7    4    4
 -0.00331292908229021    7    7    5    1
 -0.02292433445625244    7    7    5    2
 0.01239272806740262    7    7    5    3
 -0.1128168250582192    7    7    5    4
 0.3101965462075207    7    7    5    5
 0.0001000462234118845    7    7    6    1
 -0.003591818862102433    7    7    6    2
 -0.002780157811151125    7    7    6    3
 0.02686944144541759    7    7    6    4
 -0.01633188618334781    7    7    6    5
 0.2430822998265386    7    7    6    6
 0.01741023505242318    7    7    7    1
 0.01350710494619656    7    7    7    2
 -0.0185868359234582    7    7    7    3
 -0.06324622203848507    7    7    7    4
 0.002115418774437591    7    7    7    5
 -0.002914254410335449    7    7    7    6
 0.4519019764175222    7    7    7    7
 -0.02164173619784849    8    1    1    1
 -0.006766149060923141    8    1    2    1
 -0.001409255119777367    8    1    2    2
 -0.01289235535597253    8    1    3    1
 -0.003994994536090242    8    1    3    2
 -0.007318926896200617    8    1    3    3
 0.01284946441697272    8    1    4    1
 0.01023011419063295    8    1    4    2
 -0.0003713413213741116    8    1    4    3
 -0.01228188122305423    8    1    4    4
 -0.0225594893678923    8    1    5    1
 -0.01610502353755076    8    1    5    2
 -0.0002076268322222427    8    1    5    3
 0.00614352293487479    8    1    5    4
 -0.007825188210407192    8    1    5    5
 0.007737388916580975    8    1    6    1
 0.004057228623527459    8    1    6    2
 0.000153103448704244    8    1    6    3
 -0.001294373573785098    8    1    6    4
 0.001385572730730676    8    1    6    5
 -0.0004679342391142385    8    1    6    6
 0.01189378847578578    8    1    7    1
 0.01519849193394267    8    1    7    2
 0.001948702449261918    8    1    7    3
 0.008759403301143737    8    1    7    4
 -0.007383229510332197    8    1    7    5
 0.001337886700891983    8    1    7    6
 -0.0171986942873142    8    1    7    7
 0.04205410896675836    8    1    8    1
 -0.01639588696918006    8    2    1    1
 -0.001141794391276389    8    2    2    1
 -0.000922848156596888    8    2    2    2
 -0.00424885533535197    8    2    3    1
 -0.003134132905151023    8    2    3    2
 0.00383402404518162    8    2    3    3
 0.01577265355524321    8    2    4    1
 -0.0157608778636159    8    2    4    2
 -0.0005631106991387331    8    2    4    3
 -0.009802709930995655    8    2    4    4
 -0.02246234758746236    8    2    5    1
 0.02075771778633098    8    2    5    2
 0.002121047600458871    8    2    5    3
 0.01128482702701567    8    2    5    4
 -0.01165609326546479    8    2    5    5
 0.004211759989590403    8    2    6    1
 -0.000268944575415676    8    2    6    2
 0.001081140971481921    8    2    6    3
 -0.002162661736004639    8    2    6    4
 0.002639727294571611    8    2    6    5
 -0.001964609401267635    8    2    6    6
 0.01542568133604623    8    2    7    1
 -0.02265211973430113    8    2    7    2
 -5.381811306421446e-05    8    2    7    3
 0.001896582600708212    8    2    7    4
 0.002155011424000971    8    2    7    5
 0.001398494081764428    8    2    7    6
 -0.01527977016926372    8    2    7    7
 -0.009862219602475623    8    2    8    1
 0.06456168939749213    8    2    8    2
 -0.05059152361891029    8    3    1    1
 -0.0132471236340563    8    3    2    1
 -0.0188584629011481    8    3    2    2
 -0.00311045611623065    8    3    3    1
 -0.003299374598942973    8    3    3    2
 0.04365222623297736    8    3    3    3
 0.002031007889391065    8    3    4    1
 -0.002747299384112008    8    3    4    2
 0.002764350209992485    8    3    4    3
 -0.01184128864269391    8    3    4    4
 0.0001839809977749572    8    3    5    1
 0.00443377868318168    8    3    5    2
 9.551048979893914e-05    8    3    5    3
 0.02274499815695386    8    3    5    4
 -0.01954250106230222    8    3    5    5
 0.0005839244150548635    8    3    6    1
 -0.0003237667568151786    8    3    6    2
 -0.006387430717959592    8    3    6    3
 -0.005669671894099886    8    3    6    4
 0.001836911589900619    8    3    6    5
 -0.009631952034412746    8    3    6    6
 7.667182366552325e-05    8    3    7    1
 -0.003023631177043093    8    3    7    2
 0.01404103062442501    8    3    7    3
 0.01050027606404449    8    3    7    4
 0.002487626063284497    8    3    7    5
 0.001363591839648537    8    3    7    6
 -0.02946534841284533    8    3    7    7
 0.001521265201617176    8    3    8    1
 0.004339048744520151    8    3    8    2
 0.02353751983742387    8    3    8    3
 0.0443661013662912    8    4    1    1
 0.04250633599733796    8    4    2    1
 -0.05526019878078972    8    4    2    2
 0.003161508708134667    8    4    3    1
 -0.002726980133812069    8    4    3    2
 0.002597162811360886    8    4    3    3
 -0.001230564378032863    8    4    4    1
 0.00414503325529879    8    4    4    2
 -0.001364251453111747    8    4    4    3
 0.01692707488283427    8    4    4    4
 -0.002032729130315118    8    4    5    1
 -0.006691225707955578    8    4    5    2
 0.0007757511182446168    8    4    5    3
 -0.005345601644596255    8    4    5    4
 0.01181149731881935    8    4    5    5
 0.0001920134490742512    8    4    6    1
 0.0001100869872277873    8    4    6    2
 -0.00459510359453308    8    4    6    3
 0.0009065465195578727    8    4    6    4
 -0.01782754338966718    8    4    6    5
 -0.05300445528039151    8    4    6    6
 0.006101609530316804    8    4    7    1
 -6.079122501776377e-06    8    4    7    2
 -0.004457445164117423    8    4    7    3
 -0.01524625023582244    8    4    7    4
 0.01130448331215073    8    4    7    5
 -0.000579874370771933    8    4    7    6
 0.02946225011963346    8    4    7    7
 -0.006214394733564281    8    4    8    1
 0.002987173311257661    8    4    8    2
 -0.003876268062264785    8    4    8    3
 0.02410896154833566    8    4    8    4
 -0.07378087092052517    8    5    1    1
 -0.06295181539708632    8    5    2    1
 0.07254018603981419    8    5    2    2
 -0.004191147239545093    8    5    3    1
 0.003649091641319999    8    5    3    2
 0.005647361735937395    8    5    3    3
 -4.357198734849468e-05    8    5    4    1
 -0.006558299194176043    8    5    4    2
 0.001381893920375808    8    5    4    3
 -0.01666552786960293    8    5    4    4
 0.006978573780949346    8    5    5    1
 0.01179652174886199    8    5    5    2
 -0.001799599376087742    8    5    5    3
 0.01682267379981819    8    5    5    4
 -0.01422319792373935    8    5    5    5
 -0.001790122227699498    8    5    6    1
 0.001218983448926904    8    5    6    2
 0.005056883049673429    8    5    6    3
 -0.005861774737476145    8    5    6    4
 0.02513934114794826    8    5    6    5
 0.07113246570543016    8    5    6    6
 -0.008300290228563552    8    5    7    1
 -0.000266662759983015    8    5    7    2
 0.007834544311719135    8    5    7    3
 0.02521991778854283    8    5    7    4
 -0.01178661463279594    8    5    7    5
 -0.002250883297442181    8    5    7    6
 -0.04672889390411559    8    5    7    7
 0.006225002133208333    8    5    8    1
 -0.004716497912315941    8    5    8    2
 0.00876341081508946    8    5    8    3
 -0.03001721366013534    8    5    8    4
 0.04743149328695485    8    5    8    5
 0.02757124642328303    8    6    1    1
 0.01424984165216166    8    6    2    1
 -0.00557404335645392    8    6    2    2
 0.001577096418490723    8    6    3    1
 0.001830367231038631    8    6    3    2
 -0.02168589685125288    8    6    3    3
 -0.000566505454295826    8    6    4    1
 0.001469015466849688    8    6    4    2
 -0.002207898111201519    8    6    4    3
 0.00355997590067124    8    6    4    4
 -0.002267715768208546    8    6    5    1
 -0.0004465635729572164    8    6    5    2
 0.0001462560777739153    8    6    5    3
 -0.0132888283769488    8    6    5    4
 0.01065099117161488    8    6    5    5
 -0.00175358852554078    8    6    6    1
 0.007716462083165975    8    6    6    2
 -0.0005537514671746822    8    6    6    3
 -0.003786222315431381    8    6    6    4
 0.003275886268424403    8    6    6    5
 -0.01396380900282721    8    6    6    6
 0.00187408763941132    8    6    7    1
 0.0006304674336657219    8    6    7    2
 -0.004711199409007265    8    6    7    3
 -0.008029532862318877    8    6    7    4
 -0.001991472394892632    8    6    7    5
 -0.009976394180339165    8    6    7    6
 0.01595977251501779    8    6    7    7
 -0.001820377992741419    8    6    8    1
 0.0008279474886539737    8    6    8    2
 -0.004158133308798603    8    6    8    3
 0.006683315975361365    8    6    8    4
 -0.005680276153909111    8    6    8    5
 0.02394226890051904    8    6    8    6
 0.02684936670115758    8    7    1    1
 0.05166763340592756    8    7    2    1
 -0.09073190551192054    8    7    2    2
 0.002982230567611919    8    7    3    1
 -0.006322250430727919    8    7    3    2
 0.03252062614545684    8    7    3    3
 0.009971912008192677    8    7    4    1
 0.006388029383306999    8    7    4    2
 0.002046106132326458    8    7    4    3
 0.008098462926844052    8    7    4    4
 -0.01162933250198246    8    7    5    1
 -0.008690248727641188    8    7    5    2
 0.0004016564545719542    8    7    5    3
 0.01415172943754374    8    7    5    4
 -0.004944335790563642    8    7    5    5
 0.003258596381157726    8    7    6    1
 -0.001198101193241986    8    7    6    2
 -0.007929235642108604    8    7    6    3
 -0.003180092899084793    8    7    6    4
 -0.02197942451918446    8    7    6    5
 -0.08126756460914011    8    7    6    6
 -0.002984844765772237    8    7    7    1
 -0.007695931840249262    8    7    7    2
 -0.003708943763928187    8    7    7    3
 -0.01186033264328859    8    7    7    4
 0.01214249551840326    8    7    7    5
 0.004221906149740622    8    7    7    6
 0.02581699998121501    8    7    7    7
 -0.006298653846516236    8    7    8    1
 0.01267674270294731    8    7    8    2
 0.003089325854425192    8    7    8    3
 0.02293744438501299    8    7    8    4
 -0.03247050317516487    8    7    8    5
 0.003598440587767984    8    7    8    6
 0.04396852309865618    8    7    8    7
 0.3441969001296837    8    8    1    1
 -0.04274579190397361    8    8    2    1
 0.4404140457397942    8    8    2    2
 -0.0001400014595790015    8    8    3    1
 0.01199177485288628    8    8    3    2
 0.2347843717714276    8    8    3    3
 -0.01919363182991822    8    8    4    1
 -0.00400368152998306    8    8    4    2
 0.009707815821666911    8    8    4    3
 0.2395973127212729    8    8    4    4
 0.0155456267670869    8    8    5    1
 0.0001291363284298114    8    8    5    2
 0.01381828574500236    8    8    5    3
 -0.0920495041643737    8    8    5    4
 0.2890549376401425    8    8    5    5
 -0.002412614413572753    8    8    6    1
 -0.00264669426170044    8    8    6    2
 0.005188907871216804    8    8    6    3
 0.02188105134043365    8    8    6    4
 0.02985233228477424    8    8    6    5
 0.3959448553454193    8    8    6    6
 -0.005435079155849606    8    8    7    1
 0.01664324443580138    8    8    7    2
 -0.002158017121137673    8    8    7    3
 0.0009385389984697927    8    8    7    4
 -0.03056006095016138    8    8    7    5
 -0.003071447375353229    8    8    7    6
 0.3086574484996829    8    8    7    7
 0.003531712592988484    8    8    8    1
 -0.03564986350493347    8    8    8    2
 -0.01732074532841629    8    8    8    3
 -0.02288974377015597    8    8    8    4
 0.02867547026769372    8    8    8    5
 -0.0005928044076955219    8    8    8    6
 -0.04868238512923876    8    8    8    7
 0.3923670135194172    8    8    8    8
 -1.585397906510623e-05    9    1    1    1
 0.001146808789908623    9    1    2    1
 -0.0001426390541862506    9    1    2    2
 0.01177527766266176    9    1    3    1
 0.004878589309043127    9    1    3    2
 -0.005632390266374239    9    1    3    3
 0.005231911432096148    9    1    4    1
 0.002174599293904371    9    1    4    2
 0.0006355101652724402    9    1    4    3
 0.001485060765343046    9    1    4    4
 -0.009994636414743949    9    1    5    1
 -0.005110144914708849    9    1    5    2
 -0.002546841046438556    9    1    5    3
 -0.001247161823698593    9    1    5    4
 0.0001397194246637339    9    1    5    5
 -0.0005221871367491334    9    1    6    1
 -0.004963600511169948    9    1    6    2
 9.261182484662053e-05    9    1    6    3
 0.0008463098011218945    9    1    6    4
 -0.000665223844841218    9    1    6    5
 -0.0006025755168025343    9    1    6    6
 0.02916220850591436    9    1    7    1
 0.01365449705517023    9    1    7    2
 0.001133779254357434    9    1    7    3
 -0.006560912743979851    9    1    7    4
 -0.0004733288705443418    9    1    7    5
 -0.001279175555943178    9    1    7    6
 0.02031685246586325    9    1    7    7
 -0.006773928273739211    9    1    8    1
 -0.01003576329386468    9    1    8    2
 -0.002459670124159682    9    1    8    3
 0.0004428485017682377    9    1    8    4
 0.0003585080715227552    9    1    8    5
 0.0004663548007615341    9    1    8    6
 -0.004687567222305872    9    1    8    7
 0.00430663980820274    9    1    8    8
 0.06555164440114088    9    1    9    1
 -0.001757863177820602    9    2    1    1
 0.004892445229935513    9    2    2    1
 -0.01089188138728884    9    2    2    2
 0.004933080912628384    9    2    3    1
 0.001360615419649869    9    2    3    2
 0.001363460241612855    9    2    3    3
 0.003524142947539105    9    2    4    1