&FCI NORB= 12,
NELEC= 16,
MS2= 0,
ORBSYM=0,3,1,2,0,3,0,3,0,3,1,2,
ISYM= 1,
&END
        0.36659421099219119400       1       1       1       1
        0.36659421099219119400       1       1       2       2
        0.32505361561206219667       1       1       3       3
        0.32505361561206219667       1       1       4       4
       -0.00200954292769419882       1       1       5       1
        0.34075541431401878967       1       1       5       5
       -0.00200954292769419882       1       1       6       2
        0.34075541431401878967       1       1       6       6
        0.00000867544602327499       1       1       7       1
        0.00000235849000281931       1       1       7       5
        0.37636341636327852456       1       1       7       7
        0.00000867544602327499       1       1       8       2
        0.00000235849000281931       1       1       8       6
        0.37636341636327852456       1       1       8       8
       -0.07136181773998998001       1       1       9       1
        0.04770442920704898865       1       1       9       5
       -0.00000104399779226169       1       1       9       7
        0.30932762122476231692       1       1       9       9
       -0.07136181773998998001       1       1      10       2
        0.04770442920704898865       1       1      10       6
       -0.00000104399779226169       1       1      10       8
        0.30932762122476231692       1       1      10      10
       -0.06937048474865717407       1       1      11       3
        0.31485226704151669797       1       1      11      11
       -0.06937048474865717407       1       1      12       4
        0.31485226704151669797       1       1      12      12
        0.36130248057272579265       2       1       2       1
        0.31976199047845410561       2       1       4       3
       -0.00200955217928838097       2       1       5       2
       -0.00200955217928838097       2       1       6       1
        0.33546375629574459731       2       1       6       5
       -0.00000867601894616703       2       1       7       2
       -0.00000235969604330984       2       1       7       6
       -0.00000867601894616703       2       1       8       1
       -0.00000235969604330984       2       1       8       5
        0.37107158642556098416       2       1       8       7
       -0.07136173327179208548       2       1       9       2
        0.04770436784758017718       2       1       9       6
        0.00000104536065956453       2       1       9       8
       -0.07136173327179208548       2       1      10       1
        0.04770436784758017718       2       1      10       5
        0.00000104536065956453       2       1      10       7
        0.30403605765431407360       2       1      10       9
       -0.06937038076198526193       2       1      11       4
       -0.06937038076198526193       2       1      12       3
        0.30956070279554470659       2       1      12      11
        0.36659421099219119400       2       2       1       1
        0.36659421099219119400       2       2       2       2
        0.32505361561206219667       2       2       3       3
        0.32505361561206219667       2       2       4       4
       -0.00200954292769419882       2       2       5       1
        0.34075541431401878967       2       2       5       5
       -0.00200954292769419882       2       2       6       2
        0.34075541431401878967       2       2       6       6
        0.00000867544602327499       2       2       7       1
        0.00000235849000281931       2       2       7       5
        0.37636341636327852456       2       2       7       7
        0.00000867544602327499       2       2       8       2
        0.00000235849000281931       2       2       8       6
        0.37636341636327852456       2       2       8       8
       -0.07136181773998998001       2       2       9       1
        0.04770442920704898865       2       2       9       5
       -0.00000104399779226169       2       2       9       7
        0.30932762122476231692       2       2       9       9
       -0.07136181773998998001       2       2      10       2
        0.04770442920704898865       2       2      10       6
       -0.00000104399779226169       2       2      10       8
        0.30932762122476231692       2       2      10      10
       -0.06937048474865717407       2       2      11       3
        0.31485226704151669797       2       2      11      11
       -0.06937048474865717407       2       2      12       4
        0.31485226704151669797       2       2      12      12
        0.07226068038318692044       3       1       3       1
        0.07226068038318692044       3       1       4       2
       -0.01005003823026493978       3       1       5       3
       -0.01005003823026493978       3       1       6       4
       -0.00000000036001971594       3       1       7       3
       -0.00000000036001971594       3       1       8       4
        0.02032372019921181022       3       1       9       3
        0.02032372019921181022       3       1      10       4
       -0.02024600600125767147       3       1      11       1
       -0.03842278673339911271       3       1      11       5
       -0.00000000052530890435       3       1      11       7
        0.04946491730525030134       3       1      11       9
       -0.02024600600125767147       3       1      12       2
       -0.03842278673339911271       3       1      12       6
       -0.00000000052530890435       3       1      12       8
        0.04946491730525030134       3       1      12      10
        0.07226078702391773578       3       2       3       2
        0.07226078702391773578       3       2       4       1
       -0.01005007398284878985       3       2       5       4
       -0.01005007398284878985       3       2       6       3
        0.00000000025432508938       3       2       7       4
        0.00000000025432508938       3       2       8       3
        0.02032382539007132963       3       2       9       4
        0.02032382539007132963       3       2      10       3
       -0.02024598796887469923       3       2      11       2
       -0.03842287005018271695       3       2      11       6
       -0.00000000063239477833       3       2      11       8
        0.04946505140690186930       3       2      11      10
       -0.02024598796887469923       3       2      12       1
       -0.03842287005018271695       3       2      12       5
       -0.00000000063239477833       3       2      12       7
        0.04946505140690186930       3       2      12       9
        0.32505361561206219667       3       3       1       1
        0.32505361561206219667       3       3       2       2
        0.31902993939543550228       3       3       3       3
        0.31902993939543550228       3       3       4       4
       -0.00347019350080115911       3       3       5       1
        0.30191567028569471498       3       3       5       5
       -0.00347019350080115911       3       3       6       2
        0.30191567028569471498       3       3       6       6
        0.00000867515078236881       3       3       7       1
        0.00000235867039171071       3       3       7       5
        0.31696794109673959161       3       3       7       7
        0.00000867515078236881       3       3       8       2
        0.00000235867039171071       3       3       8       6
        0.31696794109673959161       3       3       8       8
       -0.03775433335580497679       3       3       9       1
        0.02153357957304965001       3       3       9       5
       -0.00000104436449597502       3       3       9       7
        0.28818967605937068077       3       3       9       9
       -0.03775433335580497679       3       3      10       2
        0.02153357957304965001       3       3      10       6
       -0.00000104436449597502       3       3      10       8
        0.28818967605937068077       3       3      10      10
       -0.04525487688874557657       3       3      11       3
        0.30802056715553427502       3       3      11      11
       -0.04525487688874557657       3       3      12       4
        0.30802056715553427502       3       3      12      12
        0.07226078702391773578       4       1       3       2
        0.07226078702391773578       4       1       4       1
       -0.01005007398284878985       4       1       5       4
       -0.01005007398284878985       4       1       6       3
        0.00000000025432508938       4       1       7       4
        0.00000000025432508938       4       1       8       3
        0.02032382539007132963       4       1       9       4
        0.02032382539007132963       4       1      10       3
       -0.02024598796887469923       4       1      11       2
       -0.03842287005018271695       4       1      11       6
       -0.00000000063239477833       4       1      11       8
        0.04946505140690186930       4       1      11      10
       -0.02024598796887469923       4       1      12       1
       -0.03842287005018271695       4       1      12       5
       -0.00000000063239477833       4       1      12       7
        0.04946505140690186930       4       1      12       9
        0.07226068038318692044       4       2       3       1
        0.07226068038318692044       4       2       4       2
       -0.01005003823026493978       4       2       5       3
       -0.01005003823026493978       4       2       6       4
       -0.00000000036001971594       4       2       7       3
       -0.00000000036001971594       4       2       8       4
        0.02032372019921181022       4       2       9       3
        0.02032372019921181022       4       2      10       4
       -0.02024600600125767147       4       2      11       1
       -0.03842278673339911271       4       2      11       5
       -0.00000000052530890435       4       2      11       7
        0.04946491730525030134       4       2      11       9
       -0.02024600600125767147       4       2      12       2
       -0.03842278673339911271       4       2      12       6
       -0.00000000052530890435       4       2      12       8
        0.04946491730525030134       4       2      12      10
        0.31976199047845410561       4       3       2       1
        0.31373841692773840606       4       3       4       3
       -0.00347018932919520217       4       3       5       2
       -0.00347018932919520217       4       3       6       1
        0.29662412618048361601       4       3       6       5
       -0.00000867523260465476       4       3       7       2
       -0.00000235912418289889       4       3       7       6
       -0.00000867523260465476       4       3       8       1
       -0.00000235912418289889       4       3       8       5
        0.31167622344480389041       4       3       8       7
       -0.03775425105413147270       4       3       9       2
        0.02153352746800077031       4       3       9       6
        0.00000104487461171226       4       3       9       8
       -0.03775425105413147270       4       3      10       1
        0.02153352746800077031       4       3      10       5
        0.00000104487461171226       4       3      10       7
        0.28289820591445469233       4       3      10       9
       -0.04525478538658748301       4       3      11       4
       -0.04525478538658748301       4       3      12       3
        0.30272910221894322458       4       3      12      11
        0.32505361561206219667       4       4       1       1
        0.32505361561206219667       4       4       2       2
        0.31902993939543550228       4       4       3       3
        0.31902993939543550228       4       4       4       4
       -0.00347019350080115911       4       4       5       1
        0.30191567028569471498       4       4       5       5
       -0.00347019350080115911       4       4       6       2
        0.30191567028569471498       4       4       6       6
        0.00000867515078236881       4       4       7       1
        0.00000235867039171071       4       4       7       5
        0.31696794109673959161       4       4       7       7
        0.00000867515078236881       4       4       8       2
        0.00000235867039171071       4       4       8       6
        0.31696794109673959161       4       4       8       8
       -0.03775433335580497679       4       4       9       1
        0.02153357957304965001       4       4       9       5
       -0.00000104436449597502       4       4       9       7
        0.28818967605937068077       4       4       9       9
       -0.03775433335580497679       4       4      10       2
        0.02153357957304965001       4       4      10       6
       -0.00000104436449597502       4       4      10       8
        0.28818967605937068077       4       4      10      10
       -0.04525487688874557657       4       4      11       3
        0.30802056715553427502       4       4      11      11
       -0.04525487688874557657       4       4      12       4
        0.30802056715553427502       4       4      12      12
       -0.00200954292769419882       5       1       1       1
       -0.00200954292769419882       5       1       2       2
       -0.00347019350080115911       5       1       3       3
       -0.00347019350080115911       5       1       4       4
        0.06208977170895275260       5       1       5       1
        0.05227264153622340065       5       1       5       5
        0.06208977170895275260       5       1       6       2
        0.05227264153622340065       5       1       6       6
       -0.00000000008313267475       5       1       7       1
        0.00000000027363812801       5       1       7       5
        0.03424152134172382678       5       1       7       7
       -0.00000000008313267475       5       1       8       2
        0.00000000027363812801       5       1       8       6
        0.03424152134172382678       5       1       8       8
        0.01053622308386669044       5       1       9       1
        0.01526297025296907001       5       1       9       5
        0.00000000068694599881       5       1       9       7
       -0.02939336466938139922       5       1       9       9
        0.01053622308386669044       5       1      10       2
        0.01526297025296907001       5       1      10       6
        0.00000000068694599881       5       1      10       8
       -0.02939336466938139922       5       1      10      10
       -0.03789496758280062882       5       1      11       3
        0.00704301397947349698       5       1      11      11
       -0.03789496758280062882       5       1      12       4
        0.00704301397947349698       5       1      12      12
       -0.00200955217928838097       5       2       2       1
       -0.00347018932919520217       5       2       4       3
        0.06208970253861780669       5       2       5       2
        0.06208970253861780669       5       2       6       1
        0.05227258778919222776       5       2       6       5
       -0.00000000041070443228       5       2       7       2
       -0.00000000031733388773       5       2       7       6
       -0.00000000041070443228       5       2       8       1
       -0.00000000031733388773       5       2       8       5
        0.03424147607759350787       5       2       8       7
        0.01053623419284359028       5       2       9       2
        0.01526292260382379994       5       2       9       6
        0.00000000067001937786       5       2       9       8
        0.01053623419284359028       5       2      10       1
        0.01526292260382379994       5       2      10       5
        0.00000000067001937786       5       2      10       7
       -0.02939331290997469065       5       2      10       9
       -0.03789490331509692833       5       2      11       4
       -0.03789490331509692833       5       2      12       3
        0.00704303541354511873       5       2      12      11
       -0.01005003823026493978       5       3       3       1
       -0.01005003823026493978       5       3       4       2
        0.02355826719568706110       5       3       5       3
        0.02355826719568706110       5       3       6       4
        0.00000000022127436087       5       3       7       3
        0.00000000022127436087       5       3       8       4
       -0.01434208234925436060       5       3       9       3
       -0.01434208234925436060       5       3      10       4
       -0.01692737490352369881       5       3      11       1
       -0.00119841280587596496       5       3      11       5
        0.00000000011038318848       5       3      11       7
       -0.02381042630546460065       5       3      11       9
       -0.01692737490352369881       5       3      12       2
       -0.00119841280587596496       5       3      12       6
        0.00000000011038318848       5       3      12       8
       -0.02381042630546460065       5       3      12      10
       -0.01005007398284878985       5       4       3       2
       -0.01005007398284878985       5       4       4       1
        0.02355827918582381955       5       4       5       4
        0.02355827918582381955       5       4       6       3
        0.00000000001533597988       5       4       7       4
        0.00000000001533597988       5       4       8       3
       -0.01434211761907367919       5       4       9       4
       -0.01434211761907367919       5       4      10       3
       -0.01692738095257729017       5       4      11       2
       -0.00119838487161126194       5       4      11       6
        0.00000000014625849121       5       4      11       8
       -0.02381047127065887004       5       4      11      10
       -0.01692738095257729017       5       4      12       1
       -0.00119838487161126194       5       4      12       5
        0.00000000014625849121       5       4      12       7
       -0.02381047127065887004       5       4      12       9
        0.34075541431401878967       5       5       1       1
        0.34075541431401878967       5       5       2       2
        0.30191567028569471498       5       5       3       3
        0.30191567028569471498       5       5       4       4
        0.05227264153622340065       5       5       5       1
        0.39450411329611850819       5       5       5       5
        0.05227264153622331738       5       5       6       2
        0.39450411329611850819       5       5       6       6
        0.00000867548828676641       5       5       7       1
        0.00000235884345159100       5       5       7       5
        0.36735306201692258243       5       5       7       7
        0.00000867548828676641       5       5       8       2
        0.00000235884345159100       5       5       8       6
        0.36735306201692258243       5       5       8       8
       -0.04436371689709722732       5       5       9       1
        0.06043999552036197209       5       5       9       5
       -0.00000104378541238472       5       5       9       7
        0.27693242412682522735       5       5       9       9
       -0.04436371689709722732       5       5      10       2
        0.06043999552036197209       5       5      10       6
       -0.00000104378541238472       5       5      10       8
        0.27693242412682522735       5       5      10      10
       -0.08027160607408986848       5       5      11       3
        0.30702340067598549167       5       5      11      11
       -0.08027160607408986848       5       5      12       4
        0.30702340067598549167       5       5      12      12
       -0.00200955217928838097       6       1       2       1
       -0.00347018932919520217       6       1       4       3
        0.06208970253861780669       6       1       5       2
        0.06208970253861780669       6       1       6       1
        0.05227258778919222776       6       1       6       5
       -0.00000000041070443228       6       1       7       2
       -0.00000000031733388773       6       1       7       6
       -0.00000000041070443228       6       1       8       1
       -0.00000000031733388773       6       1       8       5
        0.03424147607759350787       6       1       8       7
        0.01053623419284359028       6       1       9       2
        0.01526292260382379994       6       1       9       6
        0.00000000067001937786       6       1       9       8
        0.01053623419284359028       6       1      10       1
        0.01526292260382379994       6       1      10       5
        0.00000000067001937786       6       1      10       7
       -0.02939331290997469065       6       1      10       9
       -0.03789490331509692833       6       1      11       4
       -0.03789490331509692833       6       1      12       3
        0.00704303541354511873       6       1      12      11
       -0.00200954292769419882       6       2       1       1
       -0.00200954292769419882       6       2       2       2
       -0.00347019350080115911       6       2       3       3
       -0.00347019350080115911       6       2       4       4
        0.06208977170895275260       6       2       5       1
        0.05227264153622331738       6       2       5       5
        0.06208977170895275260       6       2       6       2
        0.05227264153622340065       6       2       6       6
       -0.00000000008313267475       6       2       7       1
        0.00000000027363812801       6       2       7       5
        0.03424152134172382678       6       2       7       7
       -0.00000000008313267475       6       2       8       2
        0.00000000027363812801       6       2       8       6
        0.03424152134172382678       6       2       8       8
        0.01053622308386669044       6       2       9       1
        0.01526297025296907001       6       2       9       5
        0.00000000068694599881       6       2       9       7
       -0.02939336466938139922       6       2       9       9
        0.01053622308386669044       6       2      10       2
        0.01526297025296907001       6       2      10       6
        0.00000000068694599881       6       2      10       8
       -0.02939336466938139922       6       2      10      10
       -0.03789496758280062882       6       2      11       3
        0.00704301397947349698       6       2      11      11
       -0.03789496758280062882       6       2      12       4
        0.00704301397947349698       6       2      12      12
       -0.01005007398284878985       6       3       3       2
       -0.01005007398284878985       6       3       4       1
        0.02355827918582381955       6       3       5       4
        0.02355827918582381955       6       3       6       3
        0.00000000001533597988       6       3       7       4
        0.00000000001533597988       6       3       8       3
       -0.01434211761907367919       6       3       9       4
       -0.01434211761907367919       6       3      10       3
       -0.01692738095257729017       6       3      11       2
       -0.00119838487161126194       6       3      11       6
        0.00000000014625849121       6       3      11       8
       -0.02381047127065887004       6       3      11      10
       -0.01692738095257729017       6       3      12       1
       -0.00119838487161126194       6       3      12       5
        0.00000000014625849121       6       3      12       7
       -0.02381047127065887004       6       3      12       9
       -0.01005003823026493978       6       4       3       1
       -0.01005003823026493978       6       4       4       2
        0.02355826719568706110       6       4       5       3
        0.02355826719568706110       6       4       6       4
        0.00000000022127436087       6       4       7       3
        0.00000000022127436087       6       4       8       4
       -0.01434208234925436060       6       4       9       3
       -0.01434208234925436060       6       4      10       4
       -0.01692737490352369881       6       4      11       1
       -0.00119841280587596496       6       4      11       5
        0.00000000011038318848       6       4      11       7
       -0.02381042630546460065       6       4      11       9
       -0.01692737490352369881       6       4      12       2
       -0.00119841280587596496       6       4      12       6
        0.00000000011038318848       6       4      12       8
       -0.02381042630546460065       6       4      12      10
        0.33546375629574459731       6       5       2       1
        0.29662412618048361601       6       5       4       3
        0.05227258778919222776       6       5       5       2
        0.05227258778919222776       6       5       6       1
        0.38921249904844701373       6       5       6       5
       -0.00000867541665748283       6       5       7       2
       -0.00000235951319632379       6       5       7       6
       -0.00000867541665748283       6       5       8       1
       -0.00000235951319632379       6       5       8       5
        0.36206128132278209142       6       5       8       7
       -0.04436362528961727836       6       5       9       2
        0.06043990351369789293       6       5       9       6
        0.00000104546931415774       6       5       9       8
       -0.04436362528961727836       6       5      10       1
        0.06043990351369789293       6       5      10       5
        0.00000104546931415774       6       5      10       7
        0.27164097219128702232       6       5      10       9
       -0.08027146075333801978       6       5      11       4
       -0.08027146075333801978       6       5      12       3
        0.30173192855752650754       6       5      12      11
        0.34075541431401878967       6       6       1       1
        0.34075541431401878967       6       6       2       2
        0.30191567028569471498       6       6       3       3
        0.30191567028569471498       6       6       4       4
        0.05227264153622340065       6       6       5       1
        0.39450411329611850819       6       6       5       5
        0.05227264153622340065       6       6       6       2
        0.39450411329611850819       6       6       6       6
        0.00000867548828676641       6       6       7       1
        0.00000235884345159100       6       6       7       5
        0.36735306201692258243       6       6       7       7
        0.00000867548828676641       6       6       8       2
        0.00000235884345159100       6       6       8       6
        0.36735306201692258243       6       6       8       8
       -0.04436371689709722732       6       6       9       1
        0.06043999552036197209       6       6       9       5
       -0.00000104378541238472       6       6       9       7
        0.27693242412682522735       6       6       9       9
       -0.04436371689709722732       6       6      10       2
        0.06043999552036197209       6       6      10       6
       -0.00000104378541238472       6       6      10       8
        0.27693242412682522735       6       6      10      10
       -0.08027160607408986848       6       6      11       3
        0.30702340067598549167       6       6      11      11
       -0.08027160607408986848       6       6      12       4
        0.30702340067598549167       6       6      12      12
        0.00000867544602327499       7       1       1       1
        0.00000867544602327499       7       1       2       2
        0.00000867515078236881       7       1       3       3
        0.00000867515078236881       7       1       4       4
       -0.00000000008313267475       7       1       5       1
        0.00000867548828676641       7       1       5       5
       -0.00000000008313267475       7       1       6       2
        0.00000867548828676641       7       1       6       6
        0.07225707748623369509       7       1       7       1
        0.02335147913587259927       7       1       7       5
        0.00000867759912553375       7       1       7       7
        0.07225707748623369509       7       1       8       2
        0.02335147913587259927       7       1       8       6
        0.00000867759912553375       7       1       8       8
       -0.00000000021875238289       7       1       9       1
        0.00000000102707130023       7       1       9       5
       -0.02962821072085276841       7       1       9       7
        0.00000867439374419235       7       1       9       9
       -0.00000000021875238289       7       1      10       2
        0.00000000102707130023       7       1      10       6
       -0.02962821072085276841       7       1      10       8
        0.00000867439374419235       7       1      10      10
       -0.00000000113758711934       7       1      11       3
        0.00000867496358118709       7       1      11      11
       -0.00000000113758711934       7       1      12       4
        0.00000867496358118709       7       1      12      12
       -0.00000867601894616703       7       2       2       1
       -0.00000867523260465476       7       2       4       3
       -0.00000000041070443228       7       2       5       2
       -0.00000000041070443228       7       2       6       1
       -0.00000867541665748283       7       2       6       5
        0.07225696369431394706       7       2       7       2
        0.02335144819247977899       7       2       7       6
        0.07225696369431394706       7       2       8       1
        0.02335144819247977899       7       2       8       5
       -0.00000867496797377617       7       2       8       7
        0.00000000065013518804       7       2       9       2
        0.00000000026054736602       7       2       9       6