 &FCI NORB=  18,NELEC= 9,MS2=0,
  ORBSYM=1,1,1,1,1,1,1,1,1,1,1,1,1,1,1,1,1,1,
  ISYM=1,
 &END
 8.983983647871193    1    1    1    1
 -1.123337613346167    2    1    1    1
 0.233544703976836    2    1    2    1
 2.575717248633057    2    2    1    1
 -0.08040021407819581    2    2    2    1
 1.808735168819941    2    2    2    2
 -0.0002644114170660811    3    1    1    1
 6.051686150263557e-05    3    1    2    1
 -1.720837401958023e-05    3    1    2    2
 0.09791804925148408    3    1    3    1
 0.0004496369794568943    3    2    1    1
 -1.716596119740571e-05    3    2    2    1
 0.0002147821669307171    3    2    2    2
 0.1107754875509003    3    2    3    1
 0.3763227881756434    3    2    3    2
 2.570421340199136    3    3    1    1
 -0.04828811182894885    3    3    2    1
 1.835058393239923    3    3    2    2
 3.972590758799365e-05    3    3    3    1
 0.0004424246446644696    3    3    3    2
 2.022918097432885    3    3    3    3
 -0.003421029678103219    4    1    1    1
 0.000455071913622735    4    1    2    1
 -0.0008459959284337494    4    1    2    2
 -4.422311431140432e-05    4    1    3    1
 -3.988478822109945e-05    4    1    3    2
 -0.0001645420076164098    4    1    3    3
 0.09801465215821403    4    1    4    1
 0.000702467603217419    4    2    1    1
 -0.0004215027125082061    4    2    2    1
 -0.00181820009242693    4    2    2    2
 -3.853205782025235e-05    4    2    3    1
 -7.360498556530005e-05    4    2    3    2
 0.000314488974863707    4    2    3    3
 0.1108626903858914    4    2    4    1
 0.3765463792716049    4    2    4    2
 -0.0005799706633015312    4    3    1    1
 2.144972344177931e-05    4    3    2    1
 -0.0002869338452524529    4    3    2    2
 0.0003228789474686502    4    3    3    1
 0.0007295719384567023    4    3    3    2
 -0.000328617055597091    4    3    3    3
 1.3834590865845e-05    4    3    4    1
 1.241381295967753e-05    4    3    4    2
 0.1082100842763773    4    3    4    3
 2.571762511263478    4    4    1    1
 -0.04833705157662906    4    4    2    1
 1.83576547090578    4    4    2    2
 -1.948304007433664e-05    4    4    3    1
 0.0001959393086121775    4    4    3    2
 1.807327709590794    4    4    3    3
 0.0005365250441186504    4    4    4    1
 0.002160669189077899    4    4    4    2
 -0.0003315693862520713    4    4    4    3
 2.024540869503468    4    4    4    4
 0.001157749808763474    5    1    1    1
 -0.000130174060841892    5    1    2    1
 0.0003668707999132709    5    1    2    2
 2.011285167540579e-05    5    1    3    1
 1.900236123133879e-05    5    1    3    2
 0.000107358134651977    5    1    3    3
 3.560740943629392e-05    5    1    4    1
 3.223583762084189e-05    5    1    4    2
 4.047201267743888e-06    5    1    4    3
 0.0001032711933118173    5    1    4    4
 0.09802132582912013    5    1    5    1
 0.0003516856610655507    5    2    1    1
 0.0001398771183219731    5    2    2    1
 0.001144703694648323    5    2    2    2
 1.857515156103289e-05    5    2    3    1
 3.906798152794645e-05    5    2    3    2
 0.0003508086915689012    5    2    3    3
 3.153301536509887e-05    5    2    4    1
 6.307193096793903e-05    5    2    4    2
 2.79886068030541e-05    5    2    4    3
 0.0003198056679943362    5    2    4    4
 0.1108860179998065    5    2    5    1
 0.376653193550843    5    2    5    2
 0.0002611392016148425    5    3    1    1
 -9.631699547540668e-06    5    3    2    1
 0.0001306865950607548    5    3    2    2
 -0.0001019904173005179    5    3    3    1
 -0.0001920871001784553    5    3    3    2
 0.0001472221320285607    5    3    3    3
 3.964510988514529e-06    5    3    4    1
 2.771434245783612e-05    5    3    4    2
 2.609562639755909e-05    5    3    4    3
 0.0001334960409397745    5    3    4    4
 1.451914335178364e-05    5    3    5    1
 1.699989357394658e-05    5    3    5    2
 0.1082112881261058    5    3    5    3
 0.0004831617459541582    5    4    1    1
 -1.698321165086987e-05    5    4    2    1
 0.0002473933925496613    5    4    2    2
 4.108234814896297e-06    5    4    3    1
 2.80790690944796e-05    5    4    3    2
 0.0002486805762027603    5    4    3    3
 -0.0001062923769435846    5    4    4    1
 -0.0002229389754466045    5    4    4    2
 1.461967850540974e-05    5    4    4    3
 0.0002703383410137808    5    4    4    4
 0.0003353656263572521    5    4    5    1
 0.0008167295080159197    5    4    5    2
 -2.553375702636611e-05    5    4    5    3
 0.1082707180775759    5    4    5    4
 2.571829427159649    5    5    1    1
 -0.0483384125480527    5    5    2    1
 1.835827522991878    5    5    2    2
 -1.879584618415647e-05    5    5    3    1
 0.0001999136287259231    5    5    3    2
 1.807364854608709    5    5    3    3
 -0.0001522753501773372    5    5    4    1
 0.0004021109378189547    5    5    4    2
 -0.0002880263206961318    5    5    4    3
 1.808061203153496    5    5    4    4
 -0.0001472183784227851    5    5    5    1
 -0.0003906267294009191    5    5    5    2
 0.0001484039691606364    5    5    5    3
 0.0002804940249230523    5    5    5    4
 2.024616983324604    5    5    5    5
 0.2345760932592623    6    1    1    1
 -0.04960261970232824    6    1    2    1
 0.01606737123793201    6    1    2    2
 0.00196515948526167    6    1    3    1
 0.002131445701667294    6    1    3    2
 0.008919255268800646    6    1    3    3
 0.0005523731731649621    6    1    4    1
 0.0007801576746432339    6    1    4    2
 2.951914351136186e-06    6    1    4    3
 0.008919627569223133    6    1    4    4
 0.00128793526505589    6    1    5    1
 0.00126221362341983    6    1    5    2
 6.315162443983747e-08    6    1    5    3
 4.460230654268506e-06    6    1    5    4
 0.008892186141587868    6    1    5    5
 0.01060514686606108    6    1    6    1
 -0.3139519893373531    6    2    1    1
 0.01728870987875092    6    2    2    1
 -0.1565358980715449    6    2    2    2
 0.001536735583179036    6    2    3    1
 0.003750257260440477    6    2    3    2
 -0.1617156498916268    6    2    3    3
 0.0006196244423519119    6    2    4    1
 0.001290614418475403    6    2    4    2
 5.967715892016317e-05    6    2    4    3
 -0.1621547137421135    6    2    4    4
 0.0008346600869789368    6    2    5    1
 0.001891896838282398    6    2    5    2
 -1.13442182812709e-05    6    2    5    3
 -8.991291745114754e-05    6    2    5    4
 -0.1623258159854254    6    2    5    5
 -0.003411054489929012    6    2    6    1
 0.02371770668586741    6    2    6    2
 0.02972112627128605    6    3    1    1
 -0.0009638696081507436    6    3    2    1
 0.01595387927690746    6    3    2    2
 -0.01680537767892384    6    3    3    1
 -0.03801177214143455    6    3    3    2
 0.01842281715653806    6    3    3    3
 1.458748703318439e-05    6    3    4    1
 8.8063467896313e-05    6    3    4    2
 0.0003929441525908854    6    3    4    3
 0.01596578717238342    6    3    4    4
 2.383151413311709e-06    6    3    5    1
 1.652966021278491e-05    6    3    5    2
 0.000811072497179193    6    3    5    3
 -9.054591820872443e-06    6    3    5    4
 0.01596670835669263    6    3    5    5
 -0.0001498778496584775    6    3    6    1
 -0.003104279322424515    6    3    6    2
 0.009261573274395689    6    3    6    3
 0.009161327298980285    6    4    1    1
 -0.0002437656387814854    6    4    2    1
 0.00499796863307006    6    4    2    2
 2.126948057853195e-05    6    4    3    1
 8.635533511511248e-05    6    4    3    2
 0.004845880630417646    6    4    3    3
 -0.01701081767050236    6    4    4    1
 -0.03917101222490424    6    4    4    2
 0.001345740965188374    6    4    4    3
 0.005338029584814875    6    4    4    4
 -3.539969207623769e-05    6    4    5    1
 -0.0002033042679018571    6    4    5    2
 -1.08384757777981e-05    6    4    5    3
 0.0008588620460775407    6    4    5    4
 0.004780675530522347    6    4    5    5
 -6.378963605975326e-05    6    4    6    1
 -0.001026470213417294    6    4    6    2
 8.786684807566934e-05    6    4    6    3
 0.00889758331616689    6    4    6    4
 0.01936694980629158    6    5    1    1
 -0.0006503074769744449    6    5    2    1
 0.01033608575251951    6    5    2    2
 -5.403527097726516e-07    6    5    3    1
 1.563026625055916e-05    6    5    3    2
 0.01032742360311793    6    5    3    3
 -4.008376818780807e-05    6    5    4    1
 -0.0001989289211972585    6    5    4    2
 -1.319061039082187e-05    6    5    4    3
 0.01037860690008488    6    5    4    4
 -0.01704960269592129    6    5    5    1
 -0.03938522706392903    6    5    5    2
 0.001346964885277408    6    5    5    3
 0.0003285359078903652    6    5    5    4
 0.01224962130724345    6    5    5    5
 -8.586654835105908e-05    6    5    6    1
 -0.001943562243652651    6    5    6    2
 0.0001604758040530684    6    5    6    3
 2.768214750732157e-05    6    5    6    4
 0.008972442107781683    6    5    6    5
 0.5995947084030032    6    6    1    1
 -0.003758815904843804    6    6    2    1
 0.5656091619189741    6    6    2    2
 -0.002132750717739168    6    6    3    1
 -0.01205264291316013    6    6    3    2
 0.5676832424975425    6    6    3    3
 -0.0008190564999889987    6    6    4    1
 -0.004651860681118806    6    6    4    2
 -4.470135552137021e-05    6    6    4    3
 0.5660542804368134    6    6    4    4
 -0.001187874889869875    6    6    5    1
 -0.006605262902068458    6    6    5    2
 0.0002465460660669651    6    6    5    3
 -0.0001565357683515731    6    6    5    4
 0.5656967296503843    6    6    5    5
 0.0006303276759392004    6    6    6    1
 -0.008855503214386856    6    6    6    2
 -0.001229417769832783    6    6    6    3
 -0.0005519203585010948    6    6    6    4
 -0.00031847204677197    6    6    6    5
 0.452298878547114    6    6    6    6
 -0.032796810749059    7    1    1    1
 0.006796830610794462    7    1    2    1
 -0.002618313469680784    7    1    2    2
 0.01762568880605726    7    1    3    1
 0.01892045219989105    7    1    3    2
 -0.00159092805819238    7    1    3    3
 0.006825443838923456    7    1    4    1
 0.007289357994188    7    1    4    2
 4.030810969356443e-05    7    1    4    3
 -0.00156144977211576    7    1    4    4
 -0.004521860707965048    7    1    5    1
 -0.004868987707982045    7    1    5    2
 -1.896471917589409e-06    7    1    5    3
 -1.349257101715453e-05    7    1    5    4
 -0.001602741222556429    7    1    5    5
 -0.001100783038418377    7    1    6    1
 0.0007775491506243465    7    1    6    2
 -0.002952478755781438    7    1    6    3
 -0.001144872319128826    7    1    6    4
 0.0007399090898091234    7    1    6    5
 -0.0005516117036125506    7    1    6    6
 0.004059037050674576    7    1    7    1
 0.04048240604919892    7    2    1    1
 -0.002359701426251938    7    2    2    1
 0.01939630040219087    7    2    2    2
 0.01326558810752701    7    2    3    1
 0.03181382986715933    7    2    3    2
 0.02037757035408101    7    2    3    3
 0.005099672696891606    7    2    4    1
 0.01222548359104121    7    2    4    2
 -0.0003860407645263536    7    2    4    3
 0.0201840171782531    7    2    4    4
 -0.003413609391865256    7    2    5    1
 -0.008224646551154742    7    2    5    2
 0.0004048182816402254    7    2    5    3
 0.0001883352819776275    7    2    5    4
 0.02013782893994316    7    2    5    5
 0.000722492922872329    7    2    6    1
 -0.002452898249555693    7    2    6    2
 -0.006409456287598469    7    2    6    3
 -0.002490253182057006    7    2    6    4
 0.001922281647039642    7    2    6    5
 0.002032231425218473    7    2    6    6
 0.002730275231450527    7    2    7    1
 0.006581537289168413    7    2    7    2
 0.2584828173057596    7    3    1    1
 -0.008613317245292377    7    3    2    1
 0.1364104624501322    7    3    2    2
 0.002367752656091162    7    3    3    1
 0.005664541447627549    7    3    3    2
 0.1584127492256388    7    3    3    3
 -0.0002378041979708524    7    3    4    1
 -0.001160945712016376    7    3    4    2
 0.00421961315624622    7    3    4    3
 0.1364182276069276    7    3    4    4
 0.0002089712734626405    7    3    5    1
 0.001148370418659412    7    3    5    2
 -0.002804407821167376    7    3    5    3
 0.0001129508110389788    7    3    5    4
 0.1364513794888804    7    3    5    5
 0.001647609808041157    7    3    6    1
 -0.02015641891693583    7    3    6    2
 0.00119189875102366    7    3    6    3
 0.0006400897532820351    7    3    6    4
 0.001216191328913157    7    3    6    5
 0.007655481669977421    7    3    6    6
 0.0001357472593419734    7    3    7    1
 0.003511877889840417    7    3    7    2
 0.02127900996520211    7    3    7    3
 0.09985690327839943    7    4    1    1
 -0.003338002426422203    7    4    2    1
 0.05265273616246732    7    4    2    2
 -0.0001698696229718442    7    4    3    1
 -0.00111245160147293    7    4    3    2
 0.05259357902768753    7    4    3    3
 0.002258433273030144    7    4    4    1
 0.005003053544856715    7    4    4    2
 0.01114619162015167    7    4    4    3
 0.06132248217440101    7    4    4    4
 9.13775313731506e-05    7    4    5    1
 0.0005440454535912214    7    4    5    2
 9.473984577076381e-05    7    4    5    3
 -0.002827229556712021    7    4    5    4
 0.05267597602620512    7    4    5    5
 0.0006325959849656374    7    4    6    1
 -0.007780178919250117    7    4    6    2
 0.0007501126802502495    7    4    6    3
 -0.0007274423109390948    7    4    6    4
 0.0004785217740581594    7    4    6    5
 0.00341829613346887    7    4    6    6
 2.187982050839546e-05    7    4    7    1
 0.001403773872112784    7    4    7    2
 0.00719233538763989    7    4    7    3
 0.005432702170272518    7    4    7    4
 -0.06617313574690777    7    5    1    1
 0.002208425823728728    7    5    2    1
 -0.03490865207739768    7    5    2    2
 0.0001892809191582467    7    5    3    1
 0.001130915849450454    7    5    3    2
 -0.03486216231955299    7    5    3    3
 0.0001014669338849468    7    5    4    1
 0.0005517899769550063    7    5    4    2
 9.946523529950409e-05    7    5    4    3
 -0.03489627407554834    7    5    4    4
 0.002261543564100122    7    5    5    1
 0.005005065051302118    7    5    5    2
 0.01118300928293916    7    5    5    3
 0.004298299084660252    7    5    5    4
 -0.04065025167289713    7    5    5    5
 -0.0003780272765643137    7    5    6    1
 0.005241862081315159    7    5    6    2
 -0.0002789836686421    7    5    6    3
 -7.053712601851047e-05    7    5    6    4
 -0.001334128696547347    7    5    6    5
 -0.002261215274444324    7    5    6    6
 2.804984693918308e-06    7    5    7    1
 -0.0009466235927243673    7    5    7    2
 -0.004771582363386929    7    5    7    3
 -0.00187077841348584    7    5    7    4
 0.003873203920400926    7    5    7    5
 -0.01290135478913544    7    6    1    1
 0.0003491922037717525    7    6    2    1
 -0.01054332843401726    7    6    2    2
 -0.008847882905192896    7    6    3    1
 -0.04949275928094985    7    6    3    2
 -0.009209793798021948    7    6    3    3
 -0.003254314512034128    7    6    4    1
 -0.0179730153909334    7    6    4    2
 -0.001028531138856035    7    6    4    3
 -0.01132415711183461    7    6    4    4
 0.002196670409632258    7    6    5    1
 0.0120023464924757    7    6    5    2
 0.001590851856584258    7    6    5    3
 0.0007114785892809502    7    6    5    4
 -0.01165251598483583    7    6    5    5
 -0.0002372422122897836    7    6    6    1
 0.001017562005366789    7    6    6    2
 -0.008514673957963174    7    6    6    3
 -0.002688378318170404    7    6    6    4
 0.001619189082129978    7    6    6    5
 0.02194271822400617    7    6    6    6
 -0.001838058881941529    7    6    7    1
 0.005234214348530024    7    6    7    2
 0.0005107349291562767    7    6    7    3
 0.001613503311781066    7    6    7    4
 -0.001757071233675334    7    6    7    5
 0.1109906839702238    7    6    7    6
 0.5528752140324218    7    7    1    1
 -0.001958185464387088    7    7    2    1
 0.5264976302297957    7    7    2    2
 0.002535558527092895    7    7    3    1
 0.01431268629896684    7    7    3    2
 0.5363491479311007    7    7    3    3
 0.002244318022165047    7    7    4    1
 0.01456478578572244    7    7    4    2
 0.005505605428177337    7    7    4    3
 0.5244242177321715    7    7    4    4
 -0.001906468146998037    7    7    5    1
 -0.01260997847360403    7    7    5    2
 -0.003800831757109374    7    7    5    3
 -0.002098171605201412    7    7    5    4
 0.5231343235413747    7    7    5    5
 0.000331364694432009    7    7    6    1
 -0.007428974699235825    7    7    6    2
 0.002903269567083877    7    7    6    3
 0.0030440314188109    7    7    6    4
 -0.001874549445975688    7    7    6    5
 0.4332784462283747    7    7    6    6
 0.0005555883709155592    7    7    7    1
 -0.00197129602762755    7    7    7    2
 0.002266062740096358    7    7    7    3
 0.0004072232785185936    7    7    7    4
 8.48970421121816e-05    7    7    7    5
 -0.05167025453474627    7    7    7    6
 0.5242376057129836    7    7    7    7
 -0.007318045729734102    8    1    1    1
 0.001242548393005574    8    1    2    1
 -0.001485278049688265    8    1    2    2
 -0.008605615364298894    8    1    3    1
 -0.009235804284071936    8    1    3    2
 -0.001249610108223693    8    1    3    3
 0.01272674203151773    8    1    4    1
 0.01363673802508764    8    1    4    2
 -2.287710478662153e-05    8    1    4    3
 -0.001124758486061517    8    1    4    4
 -0.01015301780950542    8    1    5    1
 -0.01097941538670568    8    1    5    2
 4.861575101600908e-06    8    1    5    3
 -3.934207679101606e-05    8    1    5    4
 -0.001206214390421053    8    1    5    5
 -0.0004838726749196574    8    1    6    1
 3.251267443881864e-05    8    1    6    2
 0.001415675732295017    8    1    6    3
 -0.002133854862069294    8    1    6    4
 0.001700258290703078    8    1    6    5
 -5.362157843540571e-05    8    1    6    6
 -0.0001591195368899563    8    1    7    1
 -0.000165580594534158    8    1    7    2
 -0.0003659606927523213    8    1    7    3
 0.0002442289651839077    8    1    7    4
 -0.0002005132014198757    8    1    7    5
 0.000120648506857297    8    1    7    6
 2.787726262174428e-05    8    1    7    7
 0.003471371860406789    8    1    8    1
 0.001477399177238765    8    2    1    1
 -0.0004095807605979815    8    2    2    1
 -0.001246051942817173    8    2    2    2
 -0.006425965815473842    8    2    3    1
 -0.01526693388315486    8    2    3    2
 -0.001556353844073945    8    2    3    3
 0.009478068860014415    8    2    4    1
 0.02245532295261319    8    2    4    2
 2.295951542541574e-05    8    2    4    3
 -0.0006275563002657619    8    2    4    4
 -0.007682067937155302    8    2    5    1
 -0.01846508765299638    8    2    5    2
 -4.81124259685703e-05    8    2    5    3
 0.0001427877987125703    8    2    5    4
 -0.0007690616148251483    8    2    5    5
 -7.474596539562994e-05    8    2    6    1
 -0.000421158582002425    8    2    6    2
 0.003273729256816149    8    2    6    3
 -0.004821544000394641    8    2    6    4
 0.003916785462148187    8    2    6    5
 -0.001350584257842963    8    2    6    6
 -0.0001493543260190466    8    2    7    1
 -0.0002703566527150445    8    2    7    2
 -0.0002983370208313617    8    2    7    3
 0.0006812786510679196    8    2    7    4
 -0.0005448471713346892    8    2    7    5
 -0.0003132303891328887    8    2    7    6
 -0.002802303709361965    8    2    7    7
 0.002501560025568077    8    2    8    1
 0.005594507266656853    8    2    8    2
 -0.1253268159446984    8    3    1    1
 0.004204765117836379    8    3    2    1
 -0.06583585538703823    8    3    2    2
 0.0001708468905877651    8    3    3    1
 -0.0005116019497793587    8    3    3    2
 -0.0764414573860599    8    3    3    3
 4.654595054806695e-05    8    3    4    1
 0.0001768067287170009    8    3    4    2
 0.00790918251669892    8    3    4    3
 -0.06593104387008469    8    3    4    4
 -3.377814062572873e-05    8    3    5    1
 -0.0001741349140877606    8    3    5    2
 -0.006272169362525742    8    3    5    3
 -2.089431354541651e-06    8    3    5    4
 -0.06590275377808535    8    3    5    5
 -0.0007775873098728416    8    3    6    1
 0.009833404119410329    8    3    6    2
 -0.001444746030488056    8    3    6    3
 -0.0001008495805712396    8    3    6    4
 -0.00074670081909452    8    3    6    5
 -0.003318357860810368    8    3    6    6
 0.0001576807853494819    8    3    7    1
 -0.001069920164353158    8    3    7    2
 -0.009102063861454335    8    3    7    3
 -0.001594674545068744    8    3    7    4
 0.0008562152711869141    8    3    7    5
 0.001940612548814914    8    3    7    6
 -0.003673779618124123    8    3    7    7
 5.013457407012604e-05    8    3    8    1
 -0.0001577824392750266    8    3    8    2
 0.006624535792731377    8    3    8    3
 0.1852989045477081    8    4    1    1
 -0.006218843748486181    8    4    2    1
 0.09732854941276581    8    4    2    2
 3.165439442130475e-06    8    4    3    1
 0.0001337217825280841    8    4    3    2
 0.09728841500939146    8    4    3    3
 0.0005527816986776409    8    4    4    1
 0.001691308102089314    8    4    4    2
 -0.005451500821824917    8    4    4    3
 0.1132754968941869    8    4    4    4
 7.600119926105173e-05    8    4    5    1
 0.0004997022053476134    8    4    5    2
 1.921753962937318e-05    8    4    5    3
 -0.006321061629585292    8    4    5    4
 0.09738550545515218    8    4    5    5
 0.001159430673928404    8    4    6    1
 -0.01450402551851278    8    4    6    2
 0.001346162940514146    8    4    6    3
 0.0001286181805617609    8    4    6    4
 0.0008716520419604372    8    4    6    5
 0.005661913139067816    8    4    6    6
 -0.0001471689000829227    8    4    7    1
 0.001924155939460961    8    4    7    2
 0.01142941134658693    8    4    7    3
 0.005040044109191219    8    4    7    4
 -0.003476248019837872    8    4    7    5
 -0.000375611717320319    8    4    7    6
 0.005399746976621229    8    4    7    7
 -2.135981273674041e-05    8    4    8    1
 0.0001969429697541625    8    4    8    2
 -0.006432717686371324    8    4    8    3
 0.01174447901548533    8    4    8    4
 -0.1473553153616391    8    5    1    1
 0.004947845515935599    8    5    2    1
 -0.07736338310817482    8    5    2    2
 -1.785264646070785e-05    8    5    3    1
 -0.0001616332983685329    8    5    3    2
 -0.07731508262553213    8    5    3    3
 0.0001024595345842317    8    5    4    1
 0.0005238974250297245    8    5    4    2
 2.588772946817617e-05    8    5    4    3
 -0.07742743380793106    8    5    4    4
 0.000562239090831466    8    5    5    1
 0.001714122073869662    8    5    5    2
 -0.005410585075192975    8    5    5    3
 0.007929656043445598    8    5    5    4
 -0.09002134286102031    8    5    5    5
 -0.000910768266022746    8    5    6    1
 0.01155612398197241    8    5    6    2
 -0.001174715822841911    8    5    6    3
 -0.0001981207780122347    8    5    6    4
 -0.001132099131303264    8    5    6    5
 -0.004642407084751048    8    5    6    6
 0.0001232042838624978    8    5    7    1
 -0.001522485969268251    8    5    7    2
 -0.009142861719741789    8    5    7    3
 -0.004004873627382715    8    5    7    4
 0.002610554411752823    8    5    7    5
 0.0002648565264916884    8    5    7    6
 -0.004225550733054401    8    5    7    7
 2.497663622505455e-05    8    5    8    1
 -0.0001556157035212566    8    5    8    2
 0.005122733464389003    8    5    8    3
 -0.007570419171384001    8    5    8    4
 0.008253429668005571    8    5    8    5
 -0.01913582286765574    8    6    1    1
 0.0002144358934370985    8    6    2    1
 -0.0167817581025906    8    6    2    2
 0.004413624884576052    8    6    3    1
 0.02468974498239219    8    6    3    2
 -0.01953579745260584    8    6    3    3
 -0.006267266073247192    8    6    4    1
 -0.03477648946987567    8    6    4    2
 0.0005971120843892713    8    6    4    3
 -0.01568216871730313    8    6    4    4
 0.004901500666202297    8    6    5    1
 0.02697028859580818    8    6    5    2
 -0.0007724295343507529    8    6    5    3
 0.0008313736873577495    8    6    5    4
 -0.01636721841695083    8    6    5    5
 7.109985122049544e-05    8    6    6    1
 0.0004471158850916686    8    6    6    2
 0.004181116165874942    8    6    6    3
 -0.005313333714751576    8    6    6    4
 0.003913467999046775    8    6    6    5
 -0.02136106693954469    8    6    6    6
 0.0001317453569539171    8    6    7    1
 -0.0003649531468414577    8    6    7    2
 0.0008972616983257769    8    6    7    3
 0.0001482150039650042    8    6    7    4
 -0.0001687055343768225    8    6    7    5
 -0.01427542508128228    8    6    7    6
 -0.04724201851017493    8    6    7    7
 -0.001602840620922299    8    6    8    1
 0.005269944001756476    8    6    8    2
 -0.00119657520999642    8    6    8    3
 -0.0003274840991686334    8    6    8    4
 -0.0001035659931470464    8    6    8    5
 0.100254334011775    8    6    8    6
 -0.010036759990657    8    7    1    1
 8.259121956596121e-05    8    7    2    1
 -0.008828532143810098    8    7    2    2
 0.001079640330910224    8    7    3    1
 0.00819326865872054    8    7    3    2
 -0.01482836595582896    8    7    3    3
 0.0006344639908321928    8    7    4    1
 0.003034588613571197    8    7    4    2
 0.003524269555590934    8    7    4    3
 -0.005030911532319287    8    7    4    4
 -0.0005831481408519463    8    7    5    1
 -0.002981129114971585    8    7    5    2
 -0.002996580409107508    8    7    5    3
 -0.002390871321579862    8    7    5    4
 -0.00673802420946149    8    7    5    5
 1.483908093974102e-06    8    7    6    1
 0.0001827855603291598    8    7    6    2
 0.002320284764161151    8    7    6    3
 0.0001537063986800546    8    7    6    4
 -0.0002702980368802473    8    7    6    5
 -0.01376950285577009    8    7    6    6
 0.0002557233808801345    8    7    7    1
 -0.00161238050362957    8    7    7    2
 0.0004451738290083054    8    7    7    3
 -0.001698245138905054    8    7    7    4
 0.001390103098786842    8    7    7    5
 -0.03515868812438516    8    7    7    6
 0.003440432533542164    8    7    7    7
 5.987836254651591e-05    8    7    8    1
 0.0005542948643160033    8    7    8    2
 -0.001935114740867685    8    7    8    3
 -0.0007768538167220029    8    7    8    4
 0.0004656041248556332    8    7    8    5
 0.01762111953193804    8    7    8    6
 0.03324516542942432    8    7    8    7
 0.5187069893624915    8    8    1    1
 -0.00168782803828285    8    8    2    1
 0.4957873480367218    8    8    2    2
 -0.000993377018796089    8    8    3    1
 -0.006686051430362059    8    8    3    2
 0.4959922537895097    8    8    3    3
 8.756921098960208e-05    8    8    4    1
 0.0001650990932734886    8    8    4    2
 -0.004054355927483686    8    8    4    3
 0.4983912100432413    8    8    4    4
 -0.0001336706934148636    8    8    5    1
 -0.000563877455598779    8    8    5    2
 0.003365334208860146    8    8    5    3
 -0.004743660653655485    8    8    5    4
 0.4964230683638277    8    8    5    5
 0.0002362934438286472    8    8    6    1
 -0.006171304272240373    8    8    6    2
 -0.0008993089278575984    8    8    6    3
 0.0002068873944909082    8    8    6    4
 0.0003857056778672385    8    8    6    5
 0.422877593701762    8    8    6    6
 -0.0002620933623397443    8    8    7    1
 0.001586431566709599    8    8    7    2
 0.006345270502499896    8    8    7    3
 0.002785768843635814    8    8    7    4
 -0.001929169410754777    8    8    7    5
 0.01888192058947518    8    8    7    6
 0.3966159816849561    8    8    7    7
 -7.97253527841627e-05    8    8    8    1
 -0.001100757454955251    8    8    8    2
 -0.001455698743463551    8    8    8    3
 0.002667662056780493    8    8    8    4
 -0.001989682879335896    8    8    8    5
 -0.01609391063873096    8    8    8    6
 -0.01098214691425478    8    8    8    7
 0.4294111722833457    8    8    8    8
 -0.02200848067374009    9    1    1    1
 0.005029133139329497    9    1    2    1
 -0.0001330951994320542    9    1    2    2
 -0.0008921812207007622    9    1    3    1
 -0.0009489808996798788    9    1    3    2
 0.0006365853878981139    9    1    3    3
 0.01060241282671416    9    1    4    1
 0.0113383550169205    9    1    4    2
 -2.574042468173494e-07    9    1    4    3
 0.0007216688352475612    9    1    4    4
 0.01409317077090005    9    1    5    1
 0.01527029310472531    9    1    5    2
 2.891704184981375e-06    9    1    5    3
 3.931352309291057e-05    9    1    5    4
 0.0006304623255926627    9    1    5    5
 -0.0008360108658298688    9    1    6    1
 0.0003813629527830184    9    1    6    2
 0.0001455782354807999    9    1    6    3
 -0.001779084472810984    9    1    6    4
 -0.002387078654449087    9    1    6    5
 5.016779148339546e-05    9    1    6    6
 7.213544607299008e-05    9    1    7    1
 -9.240014053941638e-05    9    1    7    2
 -5.925007500824417e-05    9    1    7    3
 0.0002329587272916917    9    1    7    4
 0.0003346076616174951    9    1    7    5
 3.059382935638002e-05    9    1    7    6
 0.0002549828345230548    9    1    7    7
 1.965279182453499e-05    9    1    8    1
 -3.759624517104872e-05    9    1    8    2
 2.05069751846805e-05    9    1    8    3
 3.502272469893098e-05    9    1    8    4
 0.0001117101937599244    9    1    8    5
 -5.157813080994111e-05    9    1    8    6
 -3.315774222410296e-05    9    1    8    7
 0.0002543455471367697    9    1    8    8
 0.003292894530615779    9    1    9    1
 0.04141238861190791    9    2    1    1
 -0.001838513993180457    9    2    2    1