&FCI NORB= 18,
NELEC= 24,
MS2= 0,
ORBSYM=1,1,1,1,1,1,1,1,1,1,1,1,1,1,1,1,1,1,
ISYM= 1,
&END
        0.37015939007629150570       1       1       1       1
        0.02127969631621686938       1       1       2       1
        0.38244984616550148360       1       1       2       2
       -0.01166393998959761036       1       1       3       1
        0.00502165838875923316       1       1       3       2
        0.35033132993151977486       1       1       3       3
       -0.01441435485865709930       1       1       4       1
        0.00238253376083757485       1       1       4       2
       -0.00180644385110427302       1       1       4       3
        0.34200508006742730283       1       1       4       4
       -0.00031087274412940497       1       1       5       1
        0.01371191263411346978       1       1       5       2
        0.01069339731745371988       1       1       5       3
       -0.00718719313810012739       1       1       5       4
        0.35107561796284131317       1       1       5       5
       -0.00089391776040588272       1       1       6       1
       -0.00874606128122500104       1       1       6       2
        0.01453848634753012077       1       1       6       3
        0.01849782306107325067       1       1       6       4
       -0.00985268444531760441       1       1       6       5
        0.33587601970626240755       1       1       6       6
        0.00030998130772651200       1       1       7       1
        0.00258637302022712585       1       1       7       2
        0.00356667068103970995       1       1       7       3
       -0.00062716524001185995       1       1       7       4
       -0.00869735986427933733       1       1       7       5
       -0.00295943418863125205       1       1       7       6
        0.36452664538261991822       1       1       7       7
       -0.00030089058182753662       1       1       8       1
       -0.00681329464473135523       1       1       8       2
        0.00294436410903496908       1       1       8       3
        0.00499526708910832257       1       1       8       4
       -0.00637031153236882527       1       1       8       5
       -0.00249929469407118117       1       1       8       6
       -0.00596846867674672137       1       1       8       7
        0.34064657043986917850       1       1       8       8
        0.00364839797991575992       1       1       9       1
       -0.00030459098711046637       1       1       9       2
       -0.00085408519302744730       1       1       9       3
       -0.00646939501649809040       1       1       9       4
        0.00200673444949194500       1       1       9       5
       -0.00000635119393645244       1       1       9       6
       -0.01160094803594245022       1       1       9       7
        0.01492427526523784978       1       1       9       8
        0.35618144284298530744       1       1       9       9
        0.00366526351027863205       1       1      10       1
        0.00527811060957493212       1       1      10       2
        0.00442789077061035794       1       1      10       3
       -0.00125246669340212005       1       1      10       4
       -0.00490126531684565922       1       1      10       5
        0.00087949341840703923       1       1      10       6
        0.01206351516173823947       1       1      10       7
       -0.00032142354862256181       1       1      10       8
        0.00534844293695796100       1       1      10       9
        0.39134303428219457954       1       1      10      10
        0.00084881882352362352       1       1      11       1
       -0.01290414066871986044       1       1      11       2
        0.00018624013053559791       1       1      11       3
        0.00287477358542885791       1       1      11       4
       -0.00270759644794406080       1       1      11       5
        0.00508100717945304814       1       1      11       6
        0.00113455013020773892       1       1      11       7
       -0.00557308654280337917       1       1      11       8
       -0.00862786002942213075       1       1      11       9
       -0.02025141382566877923       1       1      11      10
        0.37064061456189412169       1       1      11      11
       -0.00172693612406386995       1       1      12       1
       -0.00142030798891958510       1       1      12       2
        0.01273525805899465048       1       1      12       3
        0.00303276119507575603       1       1      12       4
       -0.00021600742510699460       1       1      12       5
       -0.00038642697338466718       1       1      12       6
        0.00264676502821318107       1       1      12       7
        0.00593115001711179077       1       1      12       8
       -0.00929305438738151947       1       1      12       9
       -0.00855269520329928964       1       1      12      10
       -0.00462227680459495038       1       1      12      11
        0.36345843257079368804       1       1      12      12
        0.04805792182314239797       1       1      13       1
        0.00507757824758067224       1       1      13       2
       -0.00160321501228212005       1       1      13       3
        0.01692162040958463884       1       1      13       4
        0.00195367372555125618       1       1      13       5
       -0.00149427801622788008       1       1      13       6
       -0.00401906098823134189       1       1      13       7
        0.00106034818406967207       1       1      13       8
        0.02870427949261136064       1       1      13       9
       -0.00395571463239628197       1       1      13      10
       -0.00374160744028086785       1       1      13      11
       -0.00145318132705961702       1       1      13      12
        0.32918510197739891954       1       1      13      13
        0.00329419442339876209       1       1      14       1
        0.04188307410290850741       1       1      14       2
        0.01744964342047663000       1       1      14       3
        0.00008628842887672050       1       1      14       4
       -0.02111915893511309011       1       1      14       5
       -0.00007857346592970575       1       1      14       6
       -0.03812879154263999759       1       1      14       7
       -0.00035112908502497338       1       1      14       8
        0.00222707750880216018       1       1      14       9
       -0.00310377234169734000       1       1      14      10
       -0.00323615612478531794       1       1      14      11
       -0.00222246152112952214       1       1      14      12
        0.00964788091418358057       1       1      14      13
        0.33188521411676707995       1       1      14      14
        0.00619969455221897406       1       1      15       1
        0.01919199015470521991       1       1      15       2
       -0.03365660505349848952       1       1      15       3
        0.00367998251221494889       1       1      15       4
       -0.00245781473635595018       1       1      15       5
        0.02357383987223202887       1       1      15       6
       -0.00091676035129472830       1       1      15       7
        0.03348802015443660268       1       1      15       8
        0.00106399210710955900       1       1      15       9
       -0.00051776841130128290       1       1      15      10
       -0.00047023729444877502       1       1      15      11
       -0.00086081938443171007       1       1      15      12
        0.01490493668973381924       1       1      15      13
        0.00627331683146670639       1       1      15      14
        0.31443838874503521330       1       1      15      15
       -0.00201045249260008293       1       1      16       1
       -0.00551996480232581216       1       1      16       2
        0.00856072250642828797       1       1      16       3
        0.00763441614057855465       1       1      16       4
       -0.03801734867734073847       1       1      16       5
        0.02456955968365610865       1       1      16       6
       -0.00735629865511335142       1       1      16       7
        0.00115488989594528897       1       1      16       8
       -0.00273923582940014320       1       1      16       9
        0.00301298632721306789       1       1      16      10
        0.00390691709823885042       1       1      16      11
       -0.00041008681639907480       1       1      16      12
       -0.00498798132453888085       1       1      16      13
       -0.01498654078799107996       1       1      16      14
        0.00236700966074727698       1       1      16      15
        0.35158320505229900821       1       1      16      16
        0.00137767232588894596       1       1      17       1
        0.00952835136128519881       1       1      17       2
        0.00397040619924125815       1       1      17       3
        0.00362296711903678601       1       1      17       4
        0.02059333709364264894       1       1      17       5
        0.03112242231900697043       1       1      17       6
       -0.00378480122525301195       1       1      17       7
        0.00924928993423494543       1       1      17       8
        0.00140726271410899703       1       1      17       9
       -0.00231165277972968791       1       1      17      10
        0.00153207879200979204       1       1      17      11
       -0.00043216574140150142       1       1      17      12
        0.00131051397529910810       1       1      17      13
        0.01405134933972201038       1       1      17      14
       -0.01583402024132079047       1       1      17      15
       -0.00401536587545927616       1       1      17      16
        0.33417804502678738476       1       1      17      17
       -0.00079885185174683468       1       1      18       1
       -0.00077639157647048504       1       1      18       2
        0.00027429919354360252       1       1      18       3
        0.04697472051196428106       1       1      18       4
       -0.00195980110353531981       1       1      18       5
        0.00270041155105640385       1       1      18       6
        0.00042456208084184539       1       1      18       7
        0.00184036439274712794       1       1      18       8
        0.01083274854079505078       1       1      18       9
       -0.00258314369528705491       1       1      18      10
        0.00108713683182720092       1       1      18      11
        0.00226948656567685803       1       1      18      12
       -0.02112348387625415103       1       1      18      13
        0.00061667805918170539       1       1      18      14
        0.00823293435025063830       1       1      18      15
        0.01456423196809246944       1       1      18      16
        0.01053136565238766038       1       1      18      17
        0.33702966159626668308       1       1      18      18
        0.02127969631621686938       2       1       1       1
        0.19193862649967591283       2       1       2       1
        0.10203167043225659649       2       1       2       2
        0.00464843692405955862       2       1       3       1
       -0.03858292378693192748       2       1       3       2
       -0.12346952013508620538       2       1       3       3
        0.00122387308064069800       2       1       4       1
        0.01840788712391545900       2       1       4       2
        0.00249845802601939481       2       1       4       3
        0.01345526563187787045       2       1       4       4
        0.00065123208622645281       2       1       5       1
        0.00406236432241959770       2       1       5       2
        0.00891661149385135528       2       1       5       3
       -0.11949573476918380621       2       1       5       4
       -0.00261386314818737092       2       1       5       5
       -0.00241428025151830487       2       1       6       1
        0.00887959773919077579       2       1       6       2
       -0.00362761860887105903       2       1       6       3
        0.09545419096829428629       2       1       6       4
       -0.09488198154243202009       2       1       6       5
       -0.00989989860412778845       2       1       6       6
       -0.00045194786125082837       2       1       7       1
       -0.00632743343489858279       2       1       7       2
       -0.00873248090843303099       2       1       7       3
       -0.02170894235935803829       2       1       7       4
       -0.04214127534870795028       2       1       7       5
       -0.01776482049450377881       2       1       7       6
        0.05811135230016453712       2       1       7       7
        0.00061180321449624516       2       1       8       1
       -0.00870208603893572914       2       1       8       2
        0.00569145379601429264       2       1       8       3
        0.02923610682713648906       2       1       8       4
       -0.01790739264890840038       2       1       8       5
        0.03921645958324560671       2       1       8       6
       -0.08677067753857065080       2       1       8       7
       -0.05536627097281413695       2       1       8       8
        0.00014575554327448981       2       1       9       1
       -0.00083481508810502396       2       1       9       2
       -0.00335164825779951008       2       1       9       3
       -0.00144743580410401900       2       1       9       4
        0.01453056694795461928       2       1       9       5
        0.00655321028301980406       2       1       9       6
       -0.13338496543267419625       2       1       9       7
        0.05192029248371492212       2       1       9       8
        0.00290350266897370984       2       1       9       9
        0.00055349872896842537       2       1      10       1
       -0.00818403138886718805       2       1      10       2
        0.00132961743277517394       2       1      10       3
       -0.01327561207505456066       2       1      10       4
       -0.05205398379316451135       2       1      10       5
       -0.00821007395770260648       2       1      10       6
        0.08778221063045144046       2       1      10       7
        0.02683300606874940153       2       1      10       8
        0.04450509662046459730       2       1      10       9
        0.14209447987917359080       2       1      10      10
       -0.00245959185055761404       2       1      11       1
       -0.00391218600505249033       2       1      11       2
        0.00608069650916380228       2       1      11       3
        0.03122776238147035102       2       1      11       4
       -0.00772547263108335717       2       1      11       5
        0.01710851570527403137       2       1      11       6
        0.01827879566472546957       2       1      11       7
       -0.02487187296256141919       2       1      11       8
       -0.08830606581026247126       2       1      11       9
       -0.13082627980743211094       2       1      11      10
       -0.01776727264865072056       2       1      11      11
       -0.00024925647677427208       2       1      12       1
       -0.00239996650107962822       2       1      12       2
       -0.00157285980110373502       2       1      12       3
        0.00466033161535250439       2       1      12       4
       -0.00481034859409954461       2       1      12       5
        0.01118380983648734062       2       1      12       6
        0.01506611489270807958       2       1      12       7
       -0.02394163149674096921       2       1      12       8
       -0.01942092344150680994       2       1      12       9
       -0.02766637405023300925       2       1      12      10
        0.06014658374712959776       2       1      12      11
       -0.13250113604168708981       2       1      12      12
        0.00463048210533980112       2       1      13       1
        0.05462041976585745029       2       1      13       2
        0.00198279778621112584       2       1      13       3
       -0.00030418451061695891       2       1      13       4
        0.01667727869573739849       2       1      13       5
        0.00022165453099445381       2       1      13       6
       -0.01966455762081998834       2       1      13       7
       -0.00666510871655590694       2       1      13       8
        0.00136538215742968609       2       1      13       9
        0.00969470201278973057       2       1      13      10
       -0.02396934223095997102       2       1      13      11
       -0.00620076436509103303       2       1      13      12
        0.00952254170104811434       2       1      13      13
        0.04000150489999697301       2       1      14       1
        0.01781952671717621992       2       1      14       2
       -0.02236859572007537933       2       1      14       3
        0.01036119311853123982       2       1      14       4
        0.01056250522129707943       2       1      14       5
        0.00330076063220485294       2       1      14       6
       -0.01508495565161062021       2       1      14       7
        0.01099447743752732069       2       1      14       8
        0.02838708244015292897       2       1      14       9
       -0.02829018467716891069       2       1      14      10
       -0.00812427992655723706       2       1      14      11
       -0.00496079438272188211       2       1      14      12
        0.12670393547594049899       2       1      14      13
        0.02134403962457950138       2       1      14      14
        0.01590912910800695856       2       1      15       1
        0.02239897432716764919       2       1      15       2
        0.02219198015833435955       2       1      15       3
        0.02017847770256055162       2       1      15       4
       -0.00401341610834457518       2       1      15       5
        0.00988496445658334708       2       1      15       6
       -0.01006908437025529068       2       1      15       7
       -0.01484667832661224970       2       1      15       8
       -0.00092011957616781068       2       1      15       9
        0.01411077610986176921       2       1      15      10
       -0.00689390852365295761       2       1      15      11
       -0.00557390215779240712       2       1      15      12
        0.05961403697174563060       2       1      15      13
        0.07806525722675965173       2       1      15      14
       -0.02912223037346562890       2       1      15      15
       -0.00721789934551644603       2       1      16       1
       -0.00713109734299945466       2       1      16       2
       -0.00211204406227559613       2       1      16       3
        0.03752323697447910306       2       1      16       4
       -0.01360608529953779081       2       1      16       5
        0.02656870420108098027       2       1      16       6
        0.01467358908328260034       2       1      16       7
        0.01403802239115137934       2       1      16       8
       -0.01362271220370656934       2       1      16       9
        0.02307150555035529862       2       1      16      10
        0.01351574095804100942       2       1      16      11
        0.00971125988833957364       2       1      16      12
       -0.02293398724843591016       2       1      16      13
       -0.02916867501459513914       2       1      16      14
        0.05743954457614747905       2       1      16      15
        0.08336490395986172197       2       1      16      16
        0.01160937899558179068       2       1      17       1
        0.00091597757566057401       2       1      17       2
       -0.00734128994734138066       2       1      17       3
       -0.00422142151467581623       2       1      17       4
       -0.02851124358003418943       2       1      17       5
       -0.01321448768935648034       2       1      17       6
       -0.01495095761579572947       2       1      17       7
        0.01474046374157813970       2       1      17       8
        0.01757803631263218924       2       1      17       9
       -0.03216918853962850294       2       1      17      10
        0.00509353251106218433       2       1      17      11
        0.00413667970335581878       2       1      17      12
        0.03098236778359834964       2       1      17      13
        0.05437726476510470336       2       1      17      14
        0.03103427372650243918       2       1      17      15
        0.01006066600504721027       2       1      17      16
       -0.08004305009776195579       2       1      17      17
       -0.00038771347958815882       2       1      18       1
       -0.00378925452970193307       2       1      18       2
       -0.00178169952420776908       2       1      18       3
        0.00169676269062891895       2       1      18       4
       -0.03932678486896819259       2       1      18       5
        0.02269632014205821141       2       1      18       6
       -0.00866841191968849116       2       1      18       7
        0.01688633311955185096       2       1      18       8
       -0.00137713942262409099       2       1      18       9
       -0.00814416326214101663       2       1      18      10
        0.01830514472219198913       2       1      18      11
        0.00299456786940685603       2       1      18      12
        0.00033289162028571551       2       1      18      13
        0.02633262306053893095       2       1      18      14
        0.04427368337036489965       2       1      18      15
        0.13685101952464420738       2       1      18      16
        0.00823891814725682438       2       1      18      17
       -0.00483769054482666161       2       1      18      18
        0.38244984616550148360       2       2       1       1
        0.10203167043225659649       2       2       2       1
        0.43488880489741987834       2       2       2       2
       -0.03892359132051040338       2       2       3       1
        0.01116080994556691020       2       2       3       2
        0.29030573055338038113       2       2       3       3
       -0.00893400212817989543       2       2       4       1
        0.01158520772912609992       2       2       4       2
       -0.00474834095294160517       2       2       4       3
        0.34773508210275511088       2       2       4       4
       -0.00033914965546987100       2       2       5       1
        0.01035263827180405924       2       2       5       2
        0.01197808062380422041       2       2       5       3
       -0.04310578823237991297       2       2       5       4
        0.36778338225433498954       2       2       5       5
        0.00002124785782601487       2       2       6       1
       -0.00232433982534230180       2       2       6       2
        0.01270951991624763057       2       2       6       3
        0.07747943079524265142       2       2       6       4
       -0.04853183761720174239       2       2       6       5
        0.31496936731544639132       2       2       6       6
       -0.00058105215289918288       2       2       7       1
        0.00028211868995191698       2       2       7       2
       -0.00025942137236337312       2       2       7       3
       -0.00556275318722243561       2       2       7       4
       -0.02163385209208642038       2       2       7       5
       -0.01657770885276516060       2       2       7       6
        0.40411674379939560575       2       2       7       7
       -0.00095353696438441374       2       2       8       1
       -0.00978076507446931816       2       2       8       2
        0.00298269322487344779       2       2       8       3
        0.02209930187879282845       2       2       8       4
       -0.02020660776620662041       2       2       8       5
        0.01109546658155030965       2       2       8       6
       -0.03272441117288706763       2       2       8       7
        0.30428548313106917877       2       2       8       8
        0.00315225126150460097       2       2       9       1
       -0.00095360946647443125       2       2       9       2
       -0.00095362376084413445       2       2       9       3
       -0.00691219201869092137       2       2       9       4
        0.01010926093913755083       2       2       9       5
        0.00083661537646512109       2       2       9       6
       -0.05858956602854700768       2       2       9       7
        0.05967222083897352758       2       2       9       8
        0.35908930244382197827       2       2       9       9
        0.00188544037589970996       2       2      10       1
        0.00060059751127266670       2       2      10       2
        0.00478262155509474266       2       2      10       3
       -0.00490298046704156724       2       2      10       4
       -0.02593326879573116042       2       2      10       5
        0.00275106632222928702       2       2      10       6
        0.04831321092694525893       2       2      10       7
        0.00095480563777390376       2       2      10       8
        0.02020928220186441956       2       2      10       9
        0.45157553297940328241       2       2      10      10
       -0.00032949919631234602       2       2      11       1
       -0.01263283840516864036       2       2      11       2
        0.00224861084814457612       2       2      11       3
        0.01541218274845720937       2       2      11       4
       -0.00886835152832411537       2       2      11       5
        0.01733871536802926092       2       2      11       6
        0.01656439690389857958       2       2      11       7
       -0.02506210962460716021       2       2      11       8
       -0.04379540618916190342       2       2      11       9
       -0.08958841525616434431       2       2      11      10
        0.35720369854015071587       2       2      11      11
       -0.00209928905738982494       2       2      12       1
       -0.00206225325252492805       2       2      12       2
        0.00971955149971042917       2       2      12       3
        0.01070745128451383935       2       2      12       4
       -0.00378519833475291986       2       2      12       5
       -0.00181807765583176691       2       2      12       6
        0.01105681618948039027       2       2      12       7
        0.00572227872421817406       2       2      12       8
       -0.03330927408626849912       2       2      12       9
       -0.03360290757320733013       2       2      12      10
       -0.00716438004157027991       2       2      12      11
        0.31643055615102538836       2       2      12      12
        0.05230061204912880846       2       2      13       1
        0.02878014864127153086       2       2      13       2
       -0.00972407537162312506       2       2      13       3
        0.01466445343048984086       2       2      13       4
        0.00894964082362835651       2       2      13       5
       -0.00489668520959314884       2       2      13       6
       -0.01316407345935731964       2       2      13       7
        0.00170521691020893195       2       2      13       8
        0.03027553294371388912       2       2      13       9
       -0.00234338747904644113       2       2      13      10
       -0.01317496117571198035       2       2      13      11
       -0.00839620451903430251       2       2      13      12
        0.33337441133540041127       2       2      13      13
        0.01791890759056687099       2       2      14       1
        0.05556654562447684714       2       2      14       2
        0.01275758102136674045       2       2      14       3
        0.00095675903996649198       2       2      14       4
       -0.01552393983491317034       2       2      14       5
        0.00267247388086492297       2       2      14       6
       -0.04719336623614314719       2       2      14       7
        0.00147474668664462406       2       2      14       8
        0.01424080423024470972       2       2      14       9
       -0.01609703228821158030       2       2      14      10
       -0.00904485221837376778       2       2      14      11
       -0.00415701862685548262       2       2      14      12
        0.05398299351656767053       2       2      14      13
        0.35718788287193692366       2       2      14      14
        0.01936895257219090061       2       2      15       1
        0.02561432053813553905       2       2      15       2
       -0.02147487414580998011       2       2      15       3
        0.01325541855221449086       2       2      15       4
       -0.00668818512020489479       2       2      15       5
        0.02577954510263328128       2       2      15       6
       -0.00187698932898816497       2       2      15       7
        0.02586376933660416988       2       2      15       8
        0.00563222567110866369       2       2      15       9
        0.00186978981203879597       2       2      15      10
       -0.00518963823512802718       2       2      15      11
        0.00083381289159076895       2       2      15      12
        0.05998004653608891151       2       2      15      13
        0.03453543420888233878       2       2      15      14
        0.29032314717332868836       2       2      15      15
       -0.00682840039365662562       2       2      16       1
       -0.00781396784087374369       2       2      16       2
        0.00650984140499661842       2       2      16       3
        0.02463615777463474057       2       2      16       4
       -0.05013743017876339664       2       2      16       5
        0.03372574995957772215       2       2      16       6
       -0.00065970414559962816       2       2      16       7
        0.00863223746077601550       2       2      16       8
       -0.01218620604343123061       2       2      16       9
        0.01551334801215038979       2       2      16      10
        0.01403655638138557975       2       2      16      11
        0.00170773895666660302       2       2      16      12