 &FCI NORB=  24,NELEC=24,MS2=0,
  ORBSYM=1,1,1,1,1,1,1,1,1,1,1,1,1,1,1,1,1,1,1,1,1,1,1,1,
  ISYM=1,
 &END
 0.7315797906636902    1    1    1    1
 0.07012411963822644    2    1    1    1
 0.01525681272589882    2    1    2    1
 0.1989736353997906    2    2    1    1
 -0.04875090417264487    2    2    2    1
 0.604407463682361    2    2    2    2
 0.01335026454458609    3    1    1    1
 0.0001183412617744491    3    1    2    1
 0.01441891936370391    3    1    2    2
 0.002135702532038985    3    1    3    1
 -0.005103085235400445    3    2    1    1
 0.01255148420608833    3    2    2    1
 -0.1153658778225091    3    2    2    2
 -0.01051750990340817    3    2    3    1
 0.06525557028794379    3    2    3    2
 0.167179984066347    3    3    1    1
 -0.00514104394605383    3    3    2    1
 0.1882621134407409    3    3    2    2
 -0.0253148722446464    3    3    3    1
 0.1256850287423965    3    3    3    2
 0.6752884174973744    3    3    3    3
 -0.003708315436920091    4    1    1    1
 -0.001409073267113031    4    1    2    1
 0.002902806706867384    4    1    2    2
 -0.002436193736427607    4    1    3    1
 0.003493605009903956    4    1    3    2
 0.01776495203630657    4    1    3    3
 0.1337572352255248    4    1    4    1
 -0.003335119206239824    4    2    1    1
 -0.0004455065087612951    4    2    2    1
 -0.000290132108869129    4    2    2    2
 -0.0007872831500132916    4    2    3    1
 0.002861714047471408    4    2    3    2
 0.01060715219885597    4    2    3    3
 0.01729270256257483    4    2    4    1
 0.002702143742930358    4    2    4    2
 -0.009977864135507532    4    3    1    1
 -0.001458495739008494    4    3    2    1
 0.0002854762500102673    4    3    2    2
 -0.001399704449311561    4    3    3    1
 0.007668222625736559    4    3    3    2
 0.02790882535226794    4    3    3    3
 0.001012681760636347    4    3    4    1
 0.001588744604030269    4    3    4    2
 0.006460407301615384    4    3    4    3
 0.6255773864789548    4    4    1    1
 0.05760897587552474    4    4    2    1
 0.1848507946586308    4    4    2    2
 0.008570700644558475    4    4    3    1
 0.005373627571176598    4    4    3    2
 0.1969234758997315    4    4    3    3
 0.001720959633883971    4    4    4    1
 -0.002401204431344854    4    4    4    2
 -0.01050613774909121    4    4    4    3
 0.5904569276798584    4    4    4    4
 -0.0142561772525546    5    1    1    1
 -0.004542871053458088    5    1    2    1
 0.01259071912959657    5    1    2    2
 0.0004576601248677555    5    1    3    1
 -0.00320378252109207    5    1    3    2
 -0.0011097732437935    5    1    3    3
 0.001155948722396815    5    1    4    1
 -0.0001393326823185281    5    1    4    2
 0.0006324660522775604    5    1    4    3
 -0.01117828377183561    5    1    4    4
 0.01251688666078514    5    1    5    1
 -0.028736738550895    5    2    1    1
 -0.001878116961914142    5    2    2    1
 0.004318040229194042    5    2    2    2
 0.000135665576475986    5    2    3    1
 -0.008898644355259557    5    2    3    2
 -0.00962699944145182    5    2    3    3
 -0.0009842341701718966    5    2    4    1
 0.00204803845426419    5    2    4    2
 -0.0007911192019558893    5    2    4    3
 -0.02500283436077056    5    2    4    4
 -0.01418727618797689    5    2    5    1
 0.1104161774511996    5    2    5    2
 0.007362750172368032    5    3    1    1
 0.002097965008863754    5    3    2    1
 -0.01545814294681448    5    3    2    2
 -0.001100929016283914    5    3    3    1
 0.008587710153948    5    3    3    2
 0.01238820791637724    5    3    3    3
 0.001554990413213505    5    3    4    1
 -0.0005703111456149151    5    3    4    2
 -0.001000776284372493    5    3    4    3
 0.008536157605194236    5    3    4    4
 0.003632689276862734    5    3    5    1
 -0.02933803236709085    5    3    5    2
 0.00946838389260702    5    3    5    3
 0.002025919235852885    5    4    1    1
 -0.0006340423588878191    5    4    2    1
 0.007810284955739079    5    4    2    2
 0.001004761339655307    5    4    3    1
 -0.004574853533113928    5    4    3    2
 -0.009889507583755612    5    4    3    3
 -0.007811422448168615    5    4    4    1
 -0.001180420563025124    5    4    4    2
 0.0005091985117857169    5    4    4    3
 -0.0003650628921503508    5    4    4    4
 0.000479803476056597    5    4    5    1
 -0.0003461873408866667    5    4    5    2
 -0.0007883260023893051    5    4    5    3
 0.003565515683862203    5    4    5    4
 0.2358822113533876    5    5    1    1
 -0.0370683475758703    5    5    2    1
 0.5411795387235668    5    5    2    2
 0.01484325591553127    5    5    3    1
 -0.1057631780097321    5    5    3    2
 0.1574626988745478    5    5    3    3
 0.002554750377640921    5    5    4    1
 -0.0011166769972478    5    5    4    2
 -0.002465494984673056    5    5    4    3
 0.2141156540913156    5    5    4    4
 0.01488666265079992    5    5    5    1
 0.001588751817626474    5    5    5    2
 -0.01424536134243399    5    5    5    3
 0.008255418652465664    5    5    5    4
 0.5343419400510421    5    5    5    5
 -0.009417273795994986    6    1    1    1
 0.0003678745246936305    6    1    2    1
 -0.006336053454748841    6    1    2    2
 -0.0005693619109849434    6    1    3    1
 0.001844618305215468    6    1    3    2
 0.0005153873116842472    6    1    3    3
 -0.03516529882629361    6    1    4    1
 -0.004750335682533262    6    1    4    2
 -0.001783994752072292    6    1    4    3
 -0.007385555724775727    6    1    4    4
 -0.0111185604292122    6    1    5    1
 -0.001323439511062243    6    1    5    2
 0.0003263667422249873    6    1    5    3
 0.001094588752711811    6    1    5    4
 -0.01003298716183608    6    1    5    5
 0.03095982550578812    6    1    6    1
 -0.002893114651914404    6    2    1    1
 0.000697897649613344    6    2    2    1
 -0.006225075363901211    6    2    2    2
 -0.001052549199458391    6    2    3    1
 0.005870665531126609    6    2    3    2
 0.01910258415225013    6    2    3    3
 -0.005567214806492546    6    2    4    1
 0.0005120102420022066    6    2    4    2
 0.003575248568670169    6    2    4    3
 -0.002993918346791114    6    2    4    4
 -0.003698790096538067    6    2    5    1
 0.01813137050762548    6    2    5    2
 -0.005275009821239701    6    2    5    3
 0.0002602396428718838    6    2    5    4
 -0.006381908282005311    6    2    5    5
 0.002775967260350424    6    2    6    1
 0.007133511182136995    6    2    6    2
 -0.01498324200145384    6    3    1    1
 -0.002275476755559764    6    3    2    1
 0.000173654335943416    6    3    2    2
 -0.003181244437142304    6    3    3    1
 0.02000963891096115    6    3    3    2
 0.06817989439018905    6    3    3    3
 -0.005339181083575897    6    3    4    1
 0.003383214403489549    6    3    4    2
 0.01859856992165579    6    3    4    3
 -0.01797918624447101    6    3    4    4
 0.001381598499674769    6    3    5    1
 -0.006096656496677739    6    3    5    2
 -0.002262658300099681    6    3    5    3
 0.00204735453916875    6    3    5    4
 -0.006716021457830397    6    3    5    5
 -0.002390886431746962    6    3    6    1
 0.01048192217318877    6    3    6    2
 0.05802544108780832    6    3    6    3
 -0.1113246658413757    6    4    1    1
 -0.01418650874333126    6    4    2    1
 -0.007496856725913453    6    4    2    2
 -0.007619859226563212    6    4    3    1
 0.02280919237160526    6    4    3    2
 0.08582771756140975    6    4    3    3
 0.01193057397302482    6    4    4    1
 0.002431604392120832    6    4    4    2
 1.767065654363876e-05    6    4    4    3
 -0.0886674011568951    6    4    4    4
 0.001374904278831255    6    4    5    1
 0.003345862144688432    6    4    5    2
 0.003325901436428405    6    4    5    3
 -0.008157637000263108    6    4    5    4
 -0.01830066537354474    6    4    5    5
 0.004736944037470303    6    4    6    1
 8.1342675371142e-05    6    4    6    2
 -0.006078011722189121    6    4    6    3
 0.06051083573205451    6    4    6    4
 -0.04846616303700773    6    5    1    1
 -0.01288320194532761    6    5    2    1
 0.0570743366205184    6    5    2    2
 0.002134468539816767    6    5    3    1
 -0.02173683171620079    6    5    3    2
 -0.02297121714577571    6    5    3    3
 -0.0004897023742644102    6    5    4    1
 0.0002660993708090042    6    5    4    2
 0.002319221998744168    6    5    4    3
 -0.04508326218877268    6    5    4    4
 0.0009725845248376155    6    5    5    1
 0.004670275362245044    6    5    5    2
 -0.005104408486720999    6    5    5    3
 0.00158557662471867    6    5    5    4
 0.05008902265894558    6    5    5    5
 0.001994912884208288    6    5    6    1
 1.668518441378612e-06    6    5    6    2
 0.006844627984189324    6    5    6    3
 0.00111443651056838    6    5    6    4
 0.01865830882144765    6    5    6    5
 0.3128487299960933    6    6    1    1
 0.01612738614803006    6    6    2    1
 0.1759614146518706    6    6    2    2
 -0.01102467411213849    6    6    3    1
 0.06409410277138393    6    6    3    2
 0.429981524478302    6    6    3    3
 0.02187899640159139    6    6    4    1
 0.002444072763418692    6    6    4    2
 -0.007582869931573199    6    6    4    3
 0.3235768680557382    6    6    4    4
 -0.001510678536922807    6    6    5    1
 -0.01542996390387901    6    6    5    2
 0.01654535254464888    6    6    5    3
 -0.008996061896190857    6    6    5    4
 0.1757848608091267    6    6    5    5
 -0.004099257228710155    6    6    6    1
 -0.003309522855517324    6    6    6    2
 -0.03064489080996703    6    6    6    3
 0.0503971296127407    6    6    6    4
 -0.04274370953321974    6    6    6    5
 0.46492499725455    6    6    6    6
 0.01033432312919905    7    1    1    1
 0.002832399603397844    7    1    2    1
 -0.007045361852319558    7    1    2    2
 -0.0004132634959811741    7    1    3    1
 0.002507135301940371    7    1    3    2
 0.001807590071235974    7    1    3    3
 0.01218418377873321    7    1    4    1
 0.001789990901495786    7    1    4    2
 0.000426158903108796    7    1    4    3
 0.007237765526872136    7    1    4    4
 -0.007848665850476489    7    1    5    1
 0.001515252761212598    7    1    5    2
 -0.0006771262375096167    7    1    5    3
 -0.0007252974331394937    7    1    5    4
 -0.008271783569809172    7    1    5    5
 0.00393569823220233    7    1    6    1
 0.0005954675937600701    7    1    6    2
 0.0005862533693211577    7    1    6    3
 -0.001178155871886417    7    1    6    4
 -1.247698320989967e-05    7    1    6    5
 0.0007352803515904148    7    1    6    6
 0.0073264753645687    7    1    7    1
 0.01189904081309838    7    2    1    1
 -0.0004180285596421145    7    2    2    1
 0.01376469534294037    7    2    2    2
 0.001294839998425827    7    2    3    1
 -0.007401716934885286    7    2    3    2
 -0.01140584605676387    7    2    3    3
 0.002194695531578916    7    2    4    1
 -0.0009834367082330808    7    2    4    2
 -0.002683542695221092    7    2    4    3
 0.009699355450672213    7    2    4    4
 0.001123961363205938    7    2    5    1
 -0.008597849683176039    7    2    5    2
 0.002788707197289589    7    2    5    3
 0.0002278265494494798    7    2    5    4
 0.01380054444667167    7    2    5    5
 -0.0005073815315805485    7    2    6    1
 -0.0003584432702227198    7    2    6    2
 -0.005924494643804243    7    2    6    3
 -0.00284524835853515    7    2    6    4
 -0.000192399526874229    7    2    6    5
 0.00046760314852898    7    2    6    6
 -0.001771137941559007    7    2    7    1
 0.01466426117374939    7    2    7    2
 0.004384904481001795    7    3    1    1
 0.000713385121809128    7    3    2    1
 -0.001474974381929573    7    3    2    2
 -0.000301238900792007    7    3    3    1
 -9.006059332736283e-05    7    3    3    2
 -0.004874554889209805    7    3    3    3
 0.002230117165749803    7    3    4    1
 -0.001004382408063086    7    3    4    2
 -0.005529725879537064    7    3    4    3
 0.006235067737325348    7    3    4    4
 -0.0008591590850148882    7    3    5    1
 0.00256948939489532    7    3    5    2
 0.002570121479912162    7    3    5    3
 -0.0006693516836570443    7    3    5    4
 -1.85770873343193e-05    7    3    5    5
 0.001063868658518339    7    3    6    1
 -0.001779149607099505    7    3    6    2
 -0.007576710345891471    7    3    6    3
 0.00378173129210348    7    3    6    4
 -0.001892776430612266    7    3    6    5
 0.01300012421332429    7    3    6    6
 -0.002342043345201261    7    3    7    1
 0.01171296745885112    7    3    7    2
 0.04909079610103743    7    3    7    3
 0.03973514807824695    7    4    1    1
 0.005373830811503736    7    4    2    1
 -3.124682306503782e-05    7    4    2    2
 0.002345278976168882    7    4    3    1
 -0.006722453484525129    7    4    3    2
 -0.02700166420960863    7    4    3    3
 0.0005362381557314143    7    4    4    1
 -0.0001078553940359642    7    4    4    2
 -0.0004844338187152331    7    4    4    3
 0.0326443217964173    7    4    4    4
 -0.0006557064255444681    7    4    5    1
 -0.0009499561382289155    7    4    5    2
 -0.0007342790869754541    7    4    5    3
 -0.0006261266185277601    7    4    5    4
 0.003900607362680117    7    4    5    5
 -0.002617118617385656    7    4    6    1
 -0.000391379581599801    7    4    6    2
 0.0005171072833625381    7    4    6    3
 -0.01454095798055849    7    4    6    4
 -0.000412146562155138    7    4    6    5
 -0.01353557053768419    7    4    6    6
 0.0008503764976157104    7    4    7    1
 0.0009338041265243632    7    4    7    2
 -0.001420856381237037    7    4    7    3
 0.008263995487843749    7    4    7    4
 -0.04051160357740957    7    5    1    1
 2.663937688928907e-05    7    5    2    1
 -0.04195097146719672    7    5    2    2
 -0.003729362467296405    7    5    3    1
 0.01796436412624135    7    5    3    2
 0.02532414765039144    7    5    3    3
 0.001067449845997659    7    5    4    1
 0.0008537039060253795    7    5    4    2
 0.002129118294489012    7    5    4    3
 -0.03036966893179998    7    5    4    4
 -0.002945683477485072    7    5    5    1
 0.00510779982755913    7    5    5    2
 0.0002167195962896316    7    5    5    3
 -0.001565733357008237    7    5    5    4
 -0.04660776035300389    7    5    5    5
 0.003486485660825247    7    5    6    1
 0.001803610054261752    7    5    6    2
 0.005045453498157946    7    5    6    3
 0.01331513995949691    7    5    6    4
 -0.001940742386554991    7    5    6    5
 0.005183605021109515    7    5    6    6
 0.001741030959840768    7    5    7    1
 -0.005176159600907042    7    5    7    2
 0.0009380575269302188    7    5    7    3
 -0.004885081261929869    7    5    7    4
 0.01466212420576517    7    5    7    5
 0.005295643372634619    7    6    1    1
 0.0007340247770835785    7    6    2    1
 0.000880016114662647    7    6    2    2
 0.002514072248824779    7    6    3    1
 -0.009531999248030052    7    6    3    2
 -0.03741619062885043    7    6    3    3
 -0.00546930481469094    7    6    4    1
 -0.0004017602974474631    7    6    4    2
 0.003156905094210517    7    6    4    3
 -0.00514218920273836    7    6    4    4
 0.001956473007912816    7    6    5    1
 -0.0001766032382370294    7    6    5    2
 -0.002471789599227318    7    6    5    3
 0.002793640280903413    7    6    5    4
 0.002385456280370249    7    6    5    5
 -0.003552300761613408    7    6    6    1
 0.0002529537720121471    7    6    6    2
 0.01038762536118709    7    6    6    3
 -0.01719098101326645    7    6    6    4
 0.005579676659874072    7    6    6    5
 -0.04335723000698579    7    6    6    6
 -0.0002965700820693084    7    6    7    1
 -0.003292846728772534    7    6    7    2
 -0.007381348888114736    7    6    7    3
 0.008699752365654319    7    6    7    4
 -0.002506328048245581    7    6    7    5
 0.02534174040503342    7    6    7    6
 0.1797033689574238    7    7    1    1
 -0.001274664002019492    7    7    2    1
 0.1780144977077363    7    7    2    2
 -0.01279753042454083    7    7    3    1
 0.06410077653142515    7    7    3    2
 0.420241087870389    7    7    3    3
 0.01454022078942427    7    7    4    1
 0.004957032779438871    7    7    4    2
 0.01056327686286803    7    7    4    3
 0.193013762125535    7    7    4    4
 0.0008742535685837854    7    7    5    1
 -0.01381312530464092    7    7    5    2
 0.008796853630833632    7    7    5    3
 -0.006439931604286639    7    7    5    4
 0.1621297474073349    7    7    5    5
 -0.0003377830032205163    7    7    6    1
 0.002906295045565548    7    7    6    2
 0.0245891923522433    7    7    6    3
 0.04857516719586469    7    7    6    4
 -0.01314517161192076    7    7    6    5
 0.3220427072522956    7    7    6    6
 0.001904015533036699    7    7    7    1
 -0.01475849194188235    7    7    7    2
 0.00222794633084156    7    7    7    3
 -0.01752618975349371    7    7    7    4
 0.02349049994451605    7    7    7    5
 -0.02206086269338364    7    7    7    6
 0.3579106648456258    7    7    7    7
 -0.02124961322233669    8    1    1    1
 -0.005408259739143777    8    1    2    1
 0.008998527347229791    8    1    2    2
 0.001085083708990779    8    1    3    1
 -0.004671823361408244    8    1    3    2
 -0.006398729007081124    8    1    3    3
 -0.01353086424403343    8    1    4    1
 -0.001827247275645622    8    1    4    2
 0.0002582403430811569    8    1    4    3
 -0.01325628461581767    8    1    4    4
 0.02223593424621551    8    1    5    1
 0.002296606338033197    8    1    5    2
 -7.591019403608381e-05    8    1    5    3
 0.0009177328693342567    8    1    5    4
 0.01414297109058631    8    1    5    5
 -0.03118652585404492    8    1    6    1
 -0.003097958262144998    8    1    6    2
 -0.0006892097367868765    8    1    6    3
 -0.000199193035102131    8    1    6    4
 -0.002294281240957933    8    1    6    5
 0.001960939678162477    8    1    6    6
 -0.01705339179441722    8    1    7    1
 -0.0003021064300636694    8    1    7    2
 -0.002151392315038433    8    1    7    3
 0.0002120919378864584    8    1    7    4
 -0.003997617497779962    8    1    7    5
 0.004960474855028617    8    1    7    6
 -0.002678425600006288    8    1    7    7
 0.06507003150312334    8    1    8    1
 -0.007404893015853634    8    2    1    1
 -0.003369605110794039    8    2    2    1
 0.0170051347774401    8    2    2    2
 -0.0002207029895597819    8    2    3    1
 0.0005436211246509014    8    2    3    2
 0.007150813139130231    8    2    3    3
 -0.001316929607645619    8    2    4    1
 -0.0001073692289121335    8    2    4    2
 0.001552297921006067    8    2    4    3
 -0.005605206074230593    8    2    4    4
 0.005720916507086212    8    2    5    1
 -0.02350381425734425    8    2    5    2
 0.005826062100362593    8    2    5    3
 0.0005425266393108746    8    2    5    4
 0.0130888060600769    8    2    5    5
 -0.002787824251176853    8    2    6    1
 -0.006777312455344756    8    2    6    2
 0.006981690532262399    8    2    6    3
 0.0009124895515721246    8    2    6    4
 0.002817580742569517    8    2    6    5
 -0.0009720348005645076    8    2    6    6
 -0.001873088646571628    8    2    7    1
 -0.003863816350418764    8    2    7    2
 0.005088420266663655    8    2    7    3
 -0.0007084406696769129    8    2    7    4
 -0.002310133750146924    8    2    7    5
 0.0004756998608854469    8    2    7    6
 0.003664436982108219    8    2    7    7
 0.004440435511675728    8    2    8    1
 0.02656324417903746    8    2    8    2
 -0.002299910474163674    8    3    1    1
 -0.001620190907127431    8    3    2    1
 0.01016442883721295    8    3    2    2
 -0.0003494632162143653    8    3    3    1
 0.002412878412009211    8    3    3    2
 0.01734688691147131    8    3    3    3
 -0.002312295702990953    8    3    4    1
 0.001255874528344498    8    3    4    2
 0.007249269255074972    8    3    4    3
 -0.005023338945891155    8    3    4    4
 0.0007007091226560329    8    3    5    1
 0.006007527953055835    8    3    5    2
 -0.003493490346475796    8    3    5    3
 0.001291838396368509    8    3    5    4
 0.007747701381224389    8    3    5    5
 -0.003021297886854368    8    3    6    1
 0.00663546809400218    8    3    6    2
 0.02633703816436568    8    3    6    3
 -0.006058322078577275    8    3    6    4
 0.004829966859872445    8    3    6    5
 -0.02085211405579863    8    3    6    6
 -0.00150469455020894    8    3    7    1
 0.003537464970874194    8    3    7    2
 0.0131385364571881    8    3    7    3
 0.001124410260908002    8    3    7    4
 0.0009925137411156929    8    3    7    5
 0.004287766460997631    8    3    7    6
 0.004585976748839748    8    3    7    7
 0.002568458234984747    8    3    8    1
 -0.001031255661743321    8    3    8    2
 0.02101628583475696    8    3    8    3
 -0.04579095216350402    8    4    1    1
 -0.00552021558544804    8    4    2    1
 -0.004802253802281192    8    4    2    2
 -0.002651054791382548    8    4    3    1
 0.008592084388770318    8    4    3    2
 0.03032381572453959    8    4    3    3
 -0.006116630347216001    8    4    4    1
 -0.0008404811249307284    8    4    4    2
 0.0003869674612877771    8    4    4    3
 -0.0378765408714626    8    4    4    4
 2.527270746521278e-05    8    4    5    1
 0.001250198538445437    8    4    5    2
 0.001119891574962839    8    4    5    3
 0.005116266847551888    8    4    5    4
 -0.008994611220121922    8    4    5    5
 0.004786080021778424    8    4    6    1
 0.00061219792628702    8    4    6    2
 -0.001926298076945424    8    4    6    3
 0.008140994232823726    8    4    6    4
 -0.00128870330801399    8    4    6    5
 0.02296490071220606    8    4    6    6
 -0.000602444529922006    8    4    7    1
 -0.00121759251480176    8    4    7    2
 0.001046828129735563    8    4    7    3
 -0.01022934943924798    8    4    7    4
 0.005622520176280691    8    4    7    5
 -0.004689283010979368    8    4    7    6
 0.0140064772892576    8    4    7    7
 -0.001664557649676497    8    4    8    1
 0.0002564746907768427    8    4    8    2
 -0.002810733684798608    8    4    8    3
 0.02689652900760245    8    4    8    4
 0.08629182609298022    8    5    1    1
 0.01925652379824307    8    5    2    1
 -0.07050308342478891    8    5    2    2
 -0.0001182711850180936    8    5    3    1
 0.01956850098544892    8    5    3    2
 -0.003571267813012851    8    5    3    3
 -0.001304858064819856    8    5    4    1
 -0.0003810535879553278    8    5    4    2
 -0.0002248903206936771    8    5    4    3
 0.06974723505371297    8    5    4    4
 0.0006703545589561681    8    5    5    1
 -0.01002544095125934    8    5    5    2
 0.005645468007659572    8    5    5    3
 -0.0008664171825399989    8    5    5    4
 -0.05726301070023031    8    5    5    5
 -0.006665000487998573    8    5    6    1
 -3.568296391432971e-05    8    5    6    2
 0.002264316042473412    8    5    6    3
 -0.01859571902736083    8    5    6    4
 -0.02133415135255593    8    5    6    5
 0.01848066536309237    8    5    6    6
 -0.0001243390032096921    8    5    7    1
 -0.001301537311802214    8    5    7    2
 0.0002162307952259451    8    5    7    3
 0.007003966419167838    8    5    7    4
 -0.002472384665081376    8    5    7    5
 0.004291205525213033    8    5    7    6
 0.004755219079274675    8    5    7    7
 0.006176277031495294    8    5    8    1
 -0.002252387910517039    8    5    8    2
 5.331689615150406e-06    8    5    8    3
 -0.008083234193751627    8    5    8    4
 0.03964115024009989    8    5    8    5
 -0.1249928507367033    8    6    1    1
 -0.0113040420355959    8    6    2    1
 -0.0439789849724506    8    6    2    2
 -0.01170455883445359    8    6    3    1
 0.0441979030439538    8    6    3    2
 0.1323524688856726    8    6    3    3
 0.01215622885892528    8    6    4    1
 0.002726603897644606    8    6    4    2
 4.985370142021738e-05    8    6    4    3
 -0.0839519923809726    8    6    4    4
 -0.005950061110231854    8    6    5    1
 0.003368096474779524    8    6    5    2
 0.006297313115610261    8    6    5    3
 -0.007910288320195418    8    6    5    4
 -0.05786347803909265    8    6    5    5
 0.01655840866729712    8    6    6    1
 0.001931600226070414    8    6    6    2
 -0.008938859471240157    8    6    6    3
 0.06802736462650016    8    6    6    4
 -0.004312671523445216    8    6    6    5
 0.08538101206474369    8    6    6    6
 0.003817612935147038    8    6    7    1
 -0.005348711122311788    8    6    7    2
 0.002843709772029671    8    6    7    3
 -0.01769486933786094    8    6    7    4
 0.02204680395492733    8    6    7    5
 -0.02123893719759526    8    6    7    6
 0.07185930122290246    8    6    7    7
 -0.01915599963887299    8    6    8    1
 -0.003526037137175242    8    6    8    2
 -0.01187527566991522    8    6    8    3
 0.02217388988753856    8    6    8    4
 -0.02072584397452247    8    6    8    5
 0.1088416201495983    8    6    8    6
 -0.07716189795682458    8    7    1    1
 -0.005796907352954084    8    7    2    1
 -0.0365011133171089    8    7    2    2
 -0.006367049945084351    8    7    3    1
 0.02714598733594353    8    7    3    2
 0.06736673458377437    8    7    3    3
 0.00207470584791075    8    7    4    1
 0.001823144575022616    8    7    4    2
 0.006221922609274936    8    7    4    3
 -0.05941151055994452    8    7    4    4
 -0.002038326604986185    8    7    5    1
 8.503219251256414e-06    8    7    5    2
 0.001554865002392478    8    7    5    3
 -0.0009701214656675853    8    7    5    4
 -0.04295540528014213    8    7    5    5
 0.005826781953788788    8    7    6    1
 0.003408907897198602    8    7    6    2
 0.0142184890765093    8    7    6    3
 0.02325259271760307    8    7    6    4
 0.001978342257430113    8    7    6    5
 0.008131346535599044    8    7    6    6
 0.00223180206995255    8    7    7    1
 -0.006884128052662346    8    7    7    2
 -0.004612300572668774    8    7    7    3
 -0.007823023018082046    8    7    7    4
 0.01563787447113517    8    7    7    5
 0.001567831540534152    8    7    7    6
 0.04450752417674135    8    7    7    7
 -0.00655863102940475    8    7    8    1
 -0.002256175390380468    8    7    8    2
 0.002094918593009374    8    7    8    3
 0.01235721377633538    8    7    8    4
 -0.008160051633607848    8    7    8    5
 0.04196567866556816    8    7    8    6
 0.03351643021724409    8    7    8    7
 0.4436887838227861    8    8    1    1
 0.02190864634501463    8    8    2    1
 0.2745906111697315    8    8    2    2
 0.00537762117698886    8    8    3    1
 -0.006328561502381248    8    8    3    2
 0.2509539019872212    8    8    3    3
 0.003952865671263448    8    8    4    1
 -0.0005911572650769411    8    8    4    2
 -0.005401192055107995    8    8    4    3
 0.3971722960209547    8    8    4    4
 0.007071546136069873    8    8    5    1
 -0.01657541011174956    8    8    5    2
 0.005012558580159753    8    8    5    3
 -0.001679006948585849    8    8    5    4
 0.2825675702821708    8    8    5    5
 -0.02323916653735666    8    8    6    1
 -0.006083273795607225    8    8    6    2
 -0.01390223552672059    8    8    6    3
 -0.0294699953274437    8    8    6    4
 -0.0237423140500747    8    8    6    5
 0.319828079832243    8    8    6    6
 -0.004016187951081485    8    8    7    1
 0.004456869199698094    8    8    7    2
 0.002341584991975327    8    8    7    3
 0.01490190905555909    8    8    7    4
 -0.02674058051031274    8    8    7    5
 -0.00063431525043956    8    8    7    6
 0.2220485704941602    8    8    7    7
 0.02439440202415188    8    8    8    1
 0.008992618908495958    8    8    8    2
 -0.005202238350841474    8    8    8    3
 -0.01916565568944415    8    8    8    4
 0.0334081762736233    8    8    8    5
 -0.05228213296602003    8    8    8    6
 -0.04248450479393759    8    8    8    7
 0.3834463192780371    8    8    8    8
 0.009033414435070556    9    1    1    1
 0.000755079526223947    9    1    2    1
 0.002914594305553858    9    1    2    2
 -0.0002679416557174446    9    1    3    1
 0.0003017339168561893    9    1    3    2
 0.005172829693946483    9    1    3    3
 0.006535932421690533    9    1    4    1
 0.0007551418999038301    9    1    4    2
 -0.0001469746754070162    9    1    4    3
 0.003609265427489466    9    1    4    4
 -0.003951134719435309    9    1    5    1
 -0.002223321975680404    9    1    5    2
 0.0004426313444092621    9    1    5    3
 -0.0002591313569767326    9    1    5    4
 0.001823189494833336    9    1    5    5
 0.02120248846394348    9    1    6    1
 0.002909377638439512    9    1    6    2
 7.789008249588113e-05    9    1    6    3
 0.001509777746211296    9    1    6    4
 0.001458385505902534    9    1    6    5
 -0.002191079385830442    9    1    6    6
 0.001725370652360588    9    1    7    1
 0.001647369224164243    9    1    7    2
 -9.522034691522966e-05    9    1    7    3
 -0.0009542043211198987    9    1    7    4
 0.0009312244508071434    9    1    7    5
 -0.002370381143276244    9    1    7    6
 0.003012919977537405    9    1    7    7
 -0.03442817004943075    9    1    8    1
 -0.007096987300047675    9    1    8    2
 -0.0004934762002873396    9    1    8    3
 0.001706401499243113    9    1    8    4
 -0.003641793492802842    9    1    8    5
 0.01246914190635362    9    1    8    6
 0.00321956555783991    9    1    8    7
 -0.01570476918295685    9    1    8    8
 0.04850401145659151    9    1    9    1
 -0.005463550047463702    9    2    1    1
 0.0001717737213668482    9    2    2    1
 -0.002007581190607165    9    2    2    2
 -0.0006302773696562389    9    2    3    1
 0.002751544502577114    9    2    3    2
 -0.004572986543232458    9    2    3    3