 &FCI NORB=  24,NELEC=24,MS2=0,
  ORBSYM=1,1,1,1,1,1,1,1,1,1,1,1,1,1,1,1,1,1,1,1,1,1,1,1,
  ISYM=1,
 &END
 0.6045804751853763    1    1    1    1
 0.1450881314862612    2    1    1    1
 0.1347446498815635    2    1    2    1
 0.3198611065089628    2    2    1    1
 -0.1206106525848968    2    2    2    1
 0.5602778851002376    2    2    2    2
 0.008593528974006942    3    1    1    1
 0.004937965393918909    3    1    2    1
 -0.0007996531167374003    3    1    2    2
 0.001271634676154008    3    1    3    1
 0.006091840018012675    3    2    1    1
 -0.0004929273971332163    3    2    2    1
 0.006590153058436469    3    2    2    2
 -0.001853101625175762    3    2    3    1
 0.00537144143010952    3    2    3    2
 0.1645459153154482    3    3    1    1
 0.007010478555551589    3    3    2    1
 0.1505705826609934    3    3    2    2
 -0.0001740152704273439    3    3    3    1
 -0.01138580656084106    3    3    3    2
 0.3955641676435372    3    3    3    3
 0.00309457763623723    4    1    1    1
 -0.009374347401935542    4    1    2    1
 0.01764253315789292    4    1    2    2
 -0.0007068106254253183    4    1    3    1
 -0.001814821203988083    4    1    3    2
 0.003408904180649834    4    1    3    3
 0.03460529020226678    4    1    4    1
 -0.01441995404298077    4    2    1    1
 0.001777332976103968    4    2    2    1
 -0.01897106424307758    4    2    2    2
 -0.002370879410259153    4    2    3    1
 0.003519519770546501    4    2    3    2
 0.005230587088521273    4    2    3    3
 0.007752522160294375    4    2    4    1
 0.01660579887323415    4    2    4    2
 -0.01261941082483399    4    3    1    1
 -0.009227862413335982    4    3    2    1
 0.005728675353720282    4    3    2    2
 -5.46832187524094e-05    4    3    3    1
 0.001759257386195653    4    3    3    2
 -0.03440732244146995    4    3    3    3
 -0.0003084890115550054    4    3    4    1
 0.0008272770544853896    4    3    4    2
 0.01990333918726727    4    3    4    3
 0.2534788699101225    4    4    1    1
 0.03274884483303287    4    4    2    1
 0.1887096230969868    4    4    2    2
 0.001514438505593595    4    4    3    1
 -0.0003757389781345834    4    4    3    2
 0.2139337028130044    4    4    3    3
 0.001050086785000949    4    4    4    1
 -0.0002592541817376626    4    4    4    2
 0.003640716244501233    4    4    4    3
 0.2199398303351879    4    4    4    4
 -0.005566091308182049    5    1    1    1
 0.004345433954255379    5    1    2    1
 -0.007066616046747706    5    1    2    2
 0.002551412799989074    5    1    3    1
 -0.001765336839404647    5    1    3    2
 -0.005472985648242362    5    1    3    3
 -0.0509149897156925    5    1    4    1
 -0.02092062642807339    5    1    4    2
 -0.0003554673460517905    5    1    4    3
 -0.003907673105915081    5    1    4    4
 0.08413271290081431    5    1    5    1
 0.004671976032010599    5    2    1    1
 0.01797065017806285    5    2    2    1
 -0.03066327296998071    5    2    2    2
 -0.001013378970744492    5    2    3    1
 0.004653920656245123    5    2    3    2
 0.002588739950204924    5    2    3    3
 -0.02203256414232404    5    2    4    1
 -0.004426987332720956    5    2    4    2
 -0.001366716184594231    5    2    4    3
 0.004222377906910043    5    2    4    4
 0.02727131628489867    5    2    5    1
 0.02653219469044663    5    2    5    2
 0.003732832538351164    5    3    1    1
 -0.005996684500486067    5    3    2    1
 0.01577935265164735    5    3    2    2
 0.0001396187355870731    5    3    3    1
 0.001428960258926739    5    3    3    2
 -0.02580476631557861    5    3    3    3
 -0.00106080357670629    5    3    4    1
 -0.001326282040844064    5    3    4    2
 0.01181987633197553    5    3    4    3
 0.002717551788511826    5    3    4    4
 0.001951047801964363    5    3    5    1
 -0.0004630021642436452    5    3    5    2
 0.008118540696862894    5    3    5    3
 -0.1913872033779908    5    4    1    1
 -0.06843124469289663    5    4    2    1
 -0.05582315083862639    5    4    2    2
 -0.003580113042073538    5    4    3    1
 -0.003965105931721715    5    4    3    2
 0.03014805228496367    5    4    3    3
 -0.0008690831065532683    5    4    4    1
 0.008409544763088691    5    4    4    2
 0.01036467348176997    5    4    4    3
 -0.02238357091347913    5    4    4    4
 0.001350130923838264    5    4    5    1
 -0.004430774915399937    5    4    5    2
 -5.861602399174168e-05    5    4    5    3
 0.107673424041636    5    4    5    4
 0.4427443735597423    5    5    1    1
 0.09332126442859086    5    5    2    1
 0.2580111492234789    5    5    2    2
 0.005292139467652206    5    5    3    1
 0.002733337077767154    5    5    3    2
 0.1813842027328285    5    5    3    3
 0.004131832508928424    5    5    4    1
 -0.009014767750658736    5    5    4    2
 -0.00710922155741261    5    5    4    3
 0.2390055266546799    5    5    4    4
 -0.007025646281709957    5    5    5    1
 0.00459268617302917    5    5    5    2
 0.003171707173599359    5    5    5    3
 -0.1286642308912445    5    5    5    4
 0.3666594121528131    5    5    5    5
 -0.003079893348976304    6    1    1    1
 -0.004565968109773768    6    1    2    1
 0.006233473774066601    6    1    2    2
 -0.001962168189110317    6    1    3    1
 0.005160738435537263    6    1    3    2
 0.0008583342627997268    6    1    3    3
 -0.01243537595789218    6    1    4    1
 -0.004288055521947699    6    1    4    2
 -0.0008578540901889318    6    1    4    3
 -0.0002219598992289393    6    1    4    4
 0.01692096180430895    6    1    5    1
 0.01432326681643335    6    1    5    2
 0.0002185948321391655    6    1    5    3
 0.0002882150895208354    6    1    5    4
 -0.002105961362018443    6    1    5    5
 0.01516190101052511    6    1    6    1
 -0.01477549365976941    6    2    1    1
 0.004762857171561784    6    2    2    1
 -0.02119060406952931    6    2    2    2
 0.005198129237309646    6    2    3    1
 -0.01242386359311681    6    2    3    2
 -0.002799395036102623    6    2    3    3
 -0.006070233716424909    6    2    4    1
 -0.00391518462170255    6    2    4    2
 0.001688814354939181    6    2    4    3
 -0.004364860406501813    6    2    4    4
 0.01728356575249573    6    2    5    1
 -0.01153702665606594    6    2    5    2
 0.0006784710689056152    6    2    5    3
 0.007186208792574179    6    2    5    4
 -0.009083170050227731    6    2    5    5
 -0.02078892406303391    6    2    6    1
 0.0572648211869287    6    2    6    2
 -0.02141499973645758    6    3    1    1
 0.01702458955807298    6    3    2    1
 -0.0549319151559917    6    3    2    2
 0.0007860941331129614    6    3    3    1
 -0.001098250866948134    6    3    3    2
 -0.01041594537473333    6    3    3    3
 -0.003514659450463885    6    3    4    1
 0.002508099119593094    6    3    4    2
 0.007488230818531815    6    3    4    3
 0.001198126322335233    6    3    4    4
 0.002387289537213408    6    3    5    1
 0.003889424828104053    6    3    5    2
 0.001765586912023592    6    3    5    3
 0.01086374810414132    6    3    5    4
 -0.01255019286688042    6    3    5    5
 -0.00199504507818565    6    3    6    1
 0.005686023460551649    6    3    6    2
 0.01739567404930468    6    3    6    3
 -0.04563321562139733    6    4    1    1
 -0.01337366070088285    6    4    2    1
 -0.01963781997938223    6    4    2    2
 -0.001208527633496674    6    4    3    1
 -0.0007043218625427546    6    4    3    2
 0.01825256880803772    6    4    3    3
 0.0001645327102332932    6    4    4    1
 0.001142420998252797    6    4    4    2
 0.001100452654815181    6    4    4    3
 -0.002773546055347835    6    4    4    4
 -0.000314199338891464    6    4    5    1
 0.001072088041446721    6    4    5    2
 -0.001309354987235131    6    4    5    3
 0.02497063049711483    6    4    5    4
 -0.03063835387354791    6    4    5    5
 0.001274433906531875    6    4    6    1
 -0.000608428317228372    6    4    6    2
 0.003950970292062719    6    4    6    3
 0.01463430637703463    6    4    6    4
 0.05937741521713275    6    5    1    1
 0.05134767474109774    6    5    2    1
 -0.04188296247407212    6    5    2    2
 0.001572041448578724    6    5    3    1
 0.0001853106902523286    6    5    3    2
 0.009773974846636477    6    5    3    3
 -0.002786012192732053    6    5    4    1
 0.001346581979409794    6    5    4    2
 -0.003990915181744497    6    5    4    3
 0.01757052580594759    6    5    4    4
 0.0005004959765385323    6    5    5    1
 0.006279626611842542    6    5    5    2
 -0.003042429238036144    6    5    5    3
 -0.03043342193528572    6    5    5    4
 0.04267385419854658    6    5    5    5
 -0.001443013596327171    6    5    6    1
 -4.16881651938582e-05    6    5    6    2
 0.006473187350079222    6    5    6    3
 -0.002622757812050294    6    5    6    4
 0.02554807087464876    6    5    6    5
 0.2097634955379223    6    6    1    1
 -0.06715039976912375    6    6    2    1
 0.3423508212532261    6    6    2    2
 -0.002176398162811124    6    6    3    1
 0.003958931868981982    6    6    3    2
 0.1879022187476218    6    6    3    3
 0.01066628888488575    6    6    4    1
 -0.006511697495533857    6    6    4    2
 0.00354987544858681    6    6    4    3
 0.1832064689002034    6    6    4    4
 -0.008856199654798103    6    6    5    1
 -0.01160422839442928    6    6    5    2
 0.006865640692114696    6    6    5    3
 -0.00690752525544952    6    6    5    4
 0.1962507397057936    6    6    5    5
 0.005811705551190862    6    6    6    1
 -0.01706163723673553    6    6    6    2
 -0.02413277059359935    6    6    6    3
 0.0005314281812155981    6    6    6    4
 -0.02646175154916437    6    6    6    5
 0.2750600152244486    6    6    6    6
 -0.01403708291946789    7    1    1    1
 0.003295875154763097    7    1    2    1
 -0.01940626441631613    7    1    2    2
 -0.00214264000804996    7    1    3    1
 -0.001205630856376475    7    1    3    2
 0.01386361252088662    7    1    3    3
 0.005609744291332879    7    1    4    1
 0.01170809851249039    7    1    4    2
 -0.001917048933855517    7    1    4    3
 0.0003994779330701334    7    1    4    4
 -0.008889031876028601    7    1    5    1
 -0.005928427002083083    7    1    5    2
 -0.002560247340743779    7    1    5    3
 0.00770305501779598    7    1    5    4
 -0.006729350470502598    7    1    5    5
 -0.006866182197916969    7    1    6    1
 0.00822297731715764    7    1    6    2
 0.00162637229297806    7    1    6    3
 8.179224182717411e-05    7    1    6    4
 0.002190051949401867    7    1    6    5
 -0.008310748339964766    7    1    6    6
 0.03305727032396356    7    1    7    1
 0.01433736420473913    7    2    1    1
 -0.009438879053125732    7    2    2    1
 0.03085513398782723    7    2    2    2
 -0.0005468921419560052    7    2    3    1
 -0.0003264810075217321    7    2    3    2
 -0.005809466589415115    7    2    3    3
 0.01247047832387987    7    2    4    1
 -0.01396799700779986    7    2    4    2
 -0.0003676054591810341    7    2    4    3
 0.00304030625734142    7    2    4    4
 -0.009400988388835695    7    2    5    1
 0.0007768307654583891    7    2    5    2
 0.00112034702374214    7    2    5    3
 -0.008250495947137096    7    2    5    4
 0.01060753328391692    7    2    5    5
 0.006923702117489093    7    2    6    1
 -0.02129184023911652    7    2    6    2
 -0.004679007050128507    7    2    6    3
 0.002282825756514925    7    2    6    4
 -0.002599087517253833    7    2    6    5
 0.01872860203981066    7    2    6    6
 -0.005959523863904801    7    2    7    1
 0.03955565152275848    7    2    7    2
 -0.0245087339956805    7    3    1    1
 -0.00572583817117541    7    3    2    1
 -0.01323114144770918    7    3    2    2
 0.001145995522707036    7    3    3    1
 -0.001393635194500509    7    3    3    2
 -0.01761017634004748    7    3    3    3
 -0.0006803161305051996    7    3    4    1
 0.0003235032051190009    7    3    4    2
 0.01215971195545729    7    3    4    3
 9.694861644090126e-05    7    3    4    4
 3.618280026890971e-05    7    3    5    1
 -5.209162856393285e-05    7    3    5    2
 0.006321124071879945    7    3    5    3
 0.01467481471455556    7    3    5    4
 -0.01373885157152974    7    3    5    5
 -0.0002244881829691031    7    3    6    1
 0.0005790765039235633    7    3    6    2
 0.01229343927891662    7    3    6    3
 0.0005522905538919828    7    3    6    4
 -0.005258747318284662    7    3    6    5
 -0.001921776057819854    7    3    6    6
 -0.002164978262601594    7    3    7    1
 -0.002340000125273268    7    3    7    2
 0.02786075664341246    7    3    7    3
 0.02340404699403239    7    4    1    1
 0.03889954880992345    7    4    2    1
 -0.05240858516262749    7    4    2    2
 0.001201464102467215    7    4    3    1
 -0.002567467368447937    7    4    3    2
 0.03412056543714793    7    4    3    3
 -0.004996436470118136    7    4    4    1
 0.002211613242319525    7    4    4    2
 -0.004101555880305178    7    4    4    3
 0.01513764689067183    7    4    4    4
 0.005402333450618435    7    4    5    1
 0.004476694018063773    7    4    5    2
 -0.003129130430201973    7    4    5    3
 -0.00747600669792887    7    4    5    4
 0.0201369412255165    7    4    5    5
 -0.002681186915317703    7    4    6    1
 0.007448108468275723    7    4    6    2
 0.004419188482991773    7    4    6    3
 -0.0002652891660907095    7    4    6    4
 0.01604489630096552    7    4    6    5
 -0.02223780406310088    7    4    6    6
 0.007015207703650752    7    4    7    1
 -0.00891820377241196    7    4    7    2
 -0.004466536383643408    7    4    7    3
 0.02570632922474126    7    4    7    4
 -0.02462877675809173    7    5    1    1
 -0.0231119813700516    7    5    2    1
 0.01967348432495697    7    5    2    2
 -0.001118308219835487    7    5    3    1
 -0.0005077696197247454    7    5    3    2
 0.01515587120907269    7    5    3    3
 0.005413459735240132    7    5    4    1
 -9.207432994391988e-05    7    5    4    2
 0.00142202002061574    7    5    4    3
 -0.001985461787193631    7    5    4    4
 -0.006521726648159132    7    5    5    1
 -0.00326378373104822    7    5    5    2
 0.0003870817105168265    7    5    5    3
 0.01551010310106545    7    5    5    4
 -0.01485099444411073    7    5    5    5
 0.0003696187497936575    7    5    6    1
 -0.002243704900171404    7    5    6    2
 -0.005101744584598353    7    5    6    3
 0.00553626113431844    7    5    6    4
 -0.009851021217335198    7    5    6    5
 0.01537755334039475    7    5    6    6
 -0.0003045158351197139    7    5    7    1
 0.00398770232094907    7    5    7    2
 -0.001009782323741527    7    5    7    3
 -0.006562836640346646    7    5    7    4
 0.01525635192596693    7    5    7    5
 -0.03178053796690278    7    6    1    1
 0.02715570198330951    7    6    2    1
 -0.08504119719576345    7    6    2    2
 0.000350790262211995    7    6    3    1
 -0.003626597363563436    7    6    3    2
 0.03829766017734285    7    6    3    3
 -0.004864308099439465    7    6    4    1
 0.008296765895843463    7    6    4    2
 -0.006072312296915035    7    6    4    3
 0.002841597945269894    7    6    4    4
 0.002174582103299001    7    6    5    1
 0.004169509355090894    7    6    5    2
 -0.007969955077534568    7    6    5    3
 0.01873579082718634    7    6    5    4
 -0.01787741329935326    7    6    5    5
 -0.004528592756139225    7    6    6    1
 0.01169068332441252    7    6    6    2
 0.01174916758343682    7    6    6    3
 0.002586726886580302    7    6    6    4
 0.01107323450640765    7    6    6    5
 -0.04017812958612238    7    6    6    6
 0.0109485938224259    7    6    7    1
 -0.01720967465785969    7    6    7    2
 -0.001051184400275989    7    6    7    3
 0.01668996939737859    7    6    7    4
 -0.003308673481923351    7    6    7    5
 0.03526089208899372    7    6    7    6
 0.2995454160634615    7    7    1    1
 -0.0006533404774250806    7    7    2    1
 0.300527108300586    7    7    2    2
 0.0001221838254066557    7    7    3    1
 -0.0004934025653333248    7    7    3    2
 0.2448781736127599    7    7    3    3
 0.01049676447786344    7    7    4    1
 -0.009601995670912956    7    7    4    2
 -0.01316895227007596    7    7    4    3
 0.2111715278225785    7    7    4    4
 -0.008450936651005962    7    7    5    1
 -0.001613082977685735    7    7    5    2
 -0.003858078965701859    7    7    5    3
 -0.04553161201705482    7    7    5    4
 0.2564627342983625    7    7    5    5
 0.006188536610115395    7    7    6    1
 -0.0216397394993086    7    7    6    2
 -0.02321641755933146    7    7    6    3
 -0.006522329744791389    7    7    6    4
 0.00409479424483947    7    7    6    5
 0.2329487182767124    7    7    6    6
 0.002027821006946383    7    7    7    1
 0.0252147497888127    7    7    7    2
 -0.01797911048884444    7    7    7    3
 0.00226075641724992    7    7    7    4
 0.007669579316594984    7    7    7    5
 -0.01951706293312024    7    7    7    6
 0.2849265483049992    7    7    7    7
 -0.008138882983063284    8    1    1    1
 -0.008161547293097655    8    1    2    1
 0.009139166439190544    8    1    2    2
 -0.001757161124903795    8    1    3    1
 -0.001224971436551275    8    1    3    2
 0.004527418702366746    8    1    3    3
 0.003111910471328526    8    1    4    1
 -0.003252970139613468    8    1    4    2
 -0.0007315389067842809    8    1    4    3
 0.0004346575398454925    8    1    4    4
 0.00297870353093514    8    1    5    1
 -0.0009128384085103206    8    1    5    2
 -0.000358795240241759    8    1    5    3
 0.003224829586657584    8    1    5    4
 -0.00262861951396261    8    1    5    5
 0.002911455728597912    8    1    6    1
 -0.00627490805039062    8    1    6    2
 -0.001480190876090349    8    1    6    3
 0.001718136672286625    8    1    6    4
 -0.001523084305381224    8    1    6    5
 0.006442153538001961    8    1    6    6
 0.02128800655054344    8    1    7    1
 0.01932727081706516    8    1    7    2
 -0.001874986325656759    8    1    7    3
 -0.001099334391259605    8    1    7    4
 0.0019541260631225    8    1    7    5
 -0.003712076776077016    8    1    7    6
 0.01627496689086496    8    1    7    7
 0.03218157568517115    8    1    8    1
 -0.01354040029299054    8    2    1    1
 0.01344736855857967    8    2    2    1
 -0.03970049617534883    8    2    2    2
 -0.001141041652653308    8    2    3    1
 -0.0001612994210160948    8    2    3    2
 0.01030137590567676    8    2    3    3
 -0.004548284831110287    8    2    4    1
 0.0123449005383134    8    2    4    2
 -0.002115379935963416    8    2    4    3
 -0.0006536466089770409    8    2    4    4
 0.0001930972982912232    8    2    5    1
 0.004096145857993401    8    2    5    2
 -0.002532579719850762    8    2    5    3
 0.005164607120527004    8    2    5    4
 -0.006252901070265362    8    2    5    5
 -0.007385357197088809    8    2    6    1
 0.01750451538233969    8    2    6    2
 0.003859485665898769    8    2    6    3
 -0.001003524758538647    8    2    6    4
 0.004147736879029868    8    2    6    5
 -0.01864468390938736    8    2    6    6
 0.02276317976305009    8    2    7    1
 -0.02054358551746033    8    2    7    2
 -0.001457245783932574    8    2    7    3
 0.00949291142090784    8    2    7    4
 -0.00153748107132135    8    2    7    5
 0.01666499690942181    8    2    7    6
 -0.01154219911186817    8    2    7    7
 0.002571018979576129    8    2    8    1
 0.03105820808053346    8    2    8    2
 -0.007082153572411328    8    3    1    1
 -0.006753818904858593    8    3    2    1
 0.0060180624437623    8    3    2    2
 -0.0003240143756157429    8    3    3    1
 0.0005673926787212228    8    3    3    2
 0.001280712492445664    8    3    3    3
 0.001055179619154469    8    3    4    1
 0.0005492885681665526    8    3    4    2
 -0.005547365279457294    8    3    4    3
 -0.004303016009514527    8    3    4    4
 -0.001677621442075749    8    3    5    1
 -0.001154687141129198    8    3    5    2
 -0.002959212345170973    8    3    5    3
 0.001382578098413797    8    3    5    4
 -0.005525643031365071    8    3    5    5
 2.424429879132231e-05    8    3    6    1
 -0.0008372385370805705    8    3    6    2
 -0.002605513409277194    8    3    6    3
 0.0007642058221216334    8    3    6    4
 -0.002084437454829286    8    3    6    5
 0.002037836384337935    8    3    6    6
 -4.969587899357172e-05    8    3    7    1
 -0.002074957712769403    8    3    7    2
 0.005455361473373029    8    3    7    3
 -0.004448223735177924    8    3    7    4
 -0.0007000451691361501    8    3    7    5
 -0.001395876997571881    8    3    7    6
 -0.005844173134571347    8    3    7    7
 -0.002174728798750171    8    3    8    1
 0.002322836369642969    8    3    8    2
 0.01824989916843936    8    3    8    3
 0.01712968480705127    8    4    1    1
 -0.01164618669489761    8    4    2    1
 0.04063120975042715    8    4    2    2
 -0.0001844248921021903    8    4    3    1
 0.001549469084240637    8    4    3    2
 -0.01638797917850239    8    4    3    3
 -0.0001468151646498122    8    4    4    1
 -0.003439432481885464    8    4    4    2
 0.001851340063536692    8    4    4    3
 -0.002617329634110036    8    4    4    4
 0.002375502602643374    8    4    5    1
 -0.0009437733521714352    8    4    5    2
 0.002828772629789507    8    4    5    3
 -0.01028834599556862    8    4    5    4
 0.007255641319648185    8    4    5    5
 0.002463262308134706    8    4    6    1
 -0.004463372094825018    8    4    6    2
 -0.00464946936187099    8    4    6    3
 -0.00270031666962583    8    4    6    4
 -0.003773653215301517    8    4    6    5
 0.01467747252979775    8    4    6    6
 -0.003994157320063294    8    4    7    1
 0.006660036048129052    8    4    7    2
 -0.005093945651630225    8    4    7    3
 -0.006288900741834151    8    4    7    4
 -0.00354081031664241    8    4    7    5
 -0.01261705112672676    8    4    7    6
 0.01482777561069789    8    4    7    7
 0.002318880867130898    8    4    8    1
 -0.007482529136264456    8    4    8    2
 -0.005380982631115843    8    4    8    3
 0.01364778314960069    8    4    8    4
 0.01519791214280037    8    5    1    1
 0.0003497302022296915    8    5    2    1
 0.01400181927963097    8    5    2    2
 -2.979593050297963e-05    8    5    3    1
 0.0005214642829603413    8    5    3    2
 -0.006615995388929098    8    5    3    3
 0.003146942077785248    8    5    4    1
 0.0003041727778229512    8    5    4    2
 0.0005262785195734878    8    5    4    3
 -0.0003116019813749141    8    5    4    4
 -0.004390547958886469    8    5    5    1
 -0.002239685586534992    8    5    5    2
 0.0002691436294161222    8    5    5    3
 -0.008011403289473407    8    5    5    4
 0.009744289434255869    8    5    5    5
 -0.0008398062034233977    8    5    6    1
 -0.001267447007086803    8    5    6    2
 -0.001525133869072239    8    5    6    3
 -0.002166952679417552    8    5    6    4
 0.0009541029936593723    8    5    6    5
 0.002923386019535665    8    5    6    6
 0.0008046175985785498    8    5    7    1
 0.002398803810954714    8    5    7    2
 -0.003196260253207734    8    5    7    3
 -0.006118242700423873    8    5    7    4
 0.005229110416391395    8    5    7    5
 -0.0005845692712384214    8    5    7    6
 0.004128639991829996    8    5    7    7
 0.002013977202939898    8    5    8    1
 -0.001155156970897001    8    5    8    2
 -0.002862221446835288    8    5    8    3
 6.120881494336739e-05    8    5    8    4
 0.01028149070705094    8    5    8    5
 0.01882400966174477    8    6    1    1
 -0.02325683479171545    8    6    2    1
 0.06457109941377268    8    6    2    2
 -0.0003259506652744559    8    6    3    1
 0.001472499714757681    8    6    3    2
 -0.01129917271503308    8    6    3    3
 0.004063961966940722    8    6    4    1
 -0.005721290947954365    8    6    4    2
 0.004184140923380388    8    6    4    3
 0.001385785434032738    8    6    4    4
 -0.001879157760497881    8    6    5    1
 -0.003726677816414623    8    6    5    2
 0.004453777958969587    8    6    5    3
 -0.007538904559426688    8    6    5    4
 0.01099311139354164    8    6    5    5
 0.003926161267899616    8    6    6    1
 -0.009843117768087427    8    6    6    2
 -0.008062878141783162    8    6    6    3
 -0.0009542473962394244    8    6    6    4
 -0.008589795329796243    8    6    6    5
 0.0321361817798463    8    6    6    6
 -0.007576127762314976    8    6    7    1
 0.01385298730412913    8    6    7    2
 -0.002448339992404822    8    6    7    3
 -0.01199419027616947    8    6    7    4
 0.006714282003444034    8    6    7    5
 -0.02163710959451266    8    6    7    6
 0.02299265695826826    8    6    7    7
 0.004813463515349381    8    6    8    1
 -0.01526409177370524    8    6    8    2
 -0.007128638672977137    8    6    8    3
 0.01039848411395823    8    6    8    4
 0.004780013769643591    8    6    8    5
 0.02332096351674542    8    6    8    6
 0.09424799835068141    8    7    1    1
 0.08010296114298787    8    7    2    1
 -0.06272706963812225    8    7    2    2
 0.002581217141439467    8    7    3    1
 -0.002447432469970224    8    7    3    2
 0.01918715685656004    8    7    3    3
 -0.005453414354259792    8    7    4    1
 0.003056992387562952    8    7    4    2
 -0.008885727738705164    8    7    4    3
 0.02125426094857709    8    7    4    4
 0.004739859732316518    8    7    5    1
 0.008042779248669463    8    7    5    2
 -0.005393760156424534    8    7    5    3
 -0.04327713288191708    8    7    5    4
 0.06154109317501194    8    7    5    5
 -0.00603482182762149    8    7    6    1
 0.01104877179294123    8    7    6    2
 0.006579019623797307    8    7    6    3
 -0.01005235919004916    8    7    6    4
 0.03124100968383494    8    7    6    5
 -0.0385524109900478    8    7    6    6
 0.01587338665384911    8    7    7    1
 -0.006793532555838081    8    7    7    2
 -0.01248236944333774    8    7    7    3
 0.02914423822376317    8    7    7    4
 -0.01278743129380177    8    7    7    5
 0.02053323371548074    8    7    7    6
 0.01486449045586803    8    7    7    7
 0.006573941254372715    8    7    8    1
 0.01580527877577598    8    7    8    2
 -0.0109958843013495    8    7    8    3
 -0.003941025626669321    8    7    8    4
 0.002273732622472385    8    7    8    5
 -0.01161088706697681    8    7    8    6
 0.06794203343768207    8    7    8    7
 0.3012103276184641    8    8    1    1
 0.01664088604376359    8    8    2    1
 0.2686304964654196    8    8    2    2
 -0.0006302246273114263    8    8    3    1
 0.00277593252734486    8    8    3    2
 0.2268755310100529    8    8    3    3
 0.008185880993414815    8    8    4    1
 -0.006221631506517213    8    8    4    2
 -0.02001895210152283    8    8    4    3
 0.1996812394866941    8    8    4    4
 -0.006994657684847519    8    8    5    1
 -0.00166155234747638    8    8    5    2
 -0.007675190251927012    8    8    5    3
 -0.05235678833314659    8    8    5    4
 0.2519558705751557    8    8    5    5
 0.004768404037269748    8    8    6    1
 -0.01972081389556411    8    8    6    2
 -0.02398554638041965    8    8    6    3
 -0.007199017835922222    8    8    6    4
 0.01120355186914636    8    8    6    5
 0.2169974474169451    8    8    6    6
 0.007707226202652373    8    8    7    1
 0.01566732627633417    8    8    7    2
 -0.01625287450766568    8    8    7    3
 0.005457356936319472    8    8    7    4
 0.002324809654694043    8    8    7    5
 -0.01327516901620968    8    8    7    6
 0.2544250862614399    8    8    7    7
 0.01238897307467188    8    8    8    1
 0.001407733205051867    8    8    8    2
 0.01609780340621554    8    8    8    3
 -0.0002939080073696552    8    8    8    4
 0.002120344186606467    8    8    8    5
 0.0001849264674039115    8    8    8    6
 0.01308863264178119    8    8    8    7
 0.2939501331030734    8    8    8    8
 0.008709929067022774    9    1    1    1
 0.0006935679149127442    9    1    2    1
 0.008804080715448845    9    1    2    2
 -0.0009060646704651222    9    1    3    1
 0.0006484981224988138    9    1    3    2
 -0.00173754288484138    9    1    3    3
 0.01009763517072249    9    1    4    1
 0.007684084781565792    9    1    4    2
 -6.811448802014522e-05    9    1    4    3
 -0.0003650645778155485    9    1    4    4
 -0.0137172720553819    9    1    5    1
 -0.01390623730859807    9    1    5    2
 -0.0005706151416485693    9    1    5    3
 -0.00252406544138033    9    1    5    4
 0.003548629845959682    9    1    5    5
 -0.004895641010281067    9    1    6    1
 -0.004290906151640105    9    1    6    2
 -0.001331481198053084    9    1    6    3
 -0.002210714207726415    9    1    6    4
 0.002019986211012415    9    1    6    5
 0.00173412825647981    9    1    6    6
 0.01609392374401395    9    1    7    1
 -0.0008649310343321688    9    1    7    2
 -0.001127779273420746    9    1    7    3
 0.001447799798405076    9    1    7    4
 -0.001753863591834179    9    1    7    5
 -1.722654067353551e-05    9    1    7    6
 0.003313855472987903    9    1    7    7
 0.01333341481384837    9    1    8    1
 0.001833559297014314    9    1    8    2
 0.000150575995322365    9    1    8    3
 0.0001239525841088588    9    1    8    4
 0.002051517456946635    9    1    8    5
 0.0003879351035270726    9    1    8    6
 0.00623797823018902    9    1    8    7
 0.009301470057251555    9    1    8    8
 0.02313802877010292    9    1    9    1
 0.01163114463530339    9    2    1    1
 0.01709656640136698    9    2    2    1
 -0.02683117711189733    9    2    2    2
 0.0008413546221152418    9    2    3    1
 -0.002654230067035905    9    2    3    2
 0.009993251943023021    9    2    3    3