&FCI NORB= 18,
NELEC= 24,
MS2= 0,
ORBSYM=0,3,0,1,2,2,0,3,0,0,3,3,0,3,0,1,2,2,
ISYM= 1,
&END
        0.36527128633714972539       1       1       1       1
        0.36527128633714972539       1       1       2       2
        0.00529173041951760958       1       1       3       3
        0.32373073620843662024       1       1       4       4
        0.32373073620843662024       1       1       5       5
        0.00529162513359546314       1       1       6       6
        0.00200954728033532612       1       1       7       1
        0.33943251974373861435       1       1       7       7
        0.00200954728033532612       1       1       8       2
        0.33943251974373861435       1       1       8       8
       -0.00000000925186648236       1       1       9       3
        0.00529165801840412401       1       1       9       9
        0.00000216865725148815       1       1      10       1
       -0.00000058914905406016       1       1      10       7
        0.37504044754414511686       1       1      10      10
        0.00000216865725148815       1       1      11       2
       -0.00000058914905406016       1       1      11       8
        0.37504044754414511686       1       1      11      11
        0.00529182993751723361       1       1      12      12
       -0.07136178134341769619       1       1      13       1
       -0.04770440179633222283       1       1      13       7
       -0.00000026041402538290       1       1      13      10
        0.30800477051290742203       1       1      13      13
       -0.07136178134341769619       1       1      14       2
       -0.04770440179633222283       1       1      14       8
       -0.00000026041402538290       1       1      14      11
        0.30800477051290742203       1       1      14      14
       -0.00000008446820284121       1       1      15       3
       -0.00000006135943729631       1       1      15       9
        0.00529156357045136062       1       1      15      15
       -0.06937043874112151787       1       1      16       4
        0.31352941561164038298       1       1      16      16
       -0.06937043874112151787       1       1      17       5
        0.31352941561164038298       1       1      17      17
       -0.00000010398667354608       1       1      18       6
        0.00529156424597771076       1       1      18      18
        0.36262540549398070144       2       1       2       1
        0.32108486852665668598       2       1       5       4
        0.00200954843683133011       2       1       7       2
        0.00200954843683133011       2       1       8       1
        0.33678664795104090723       2       1       8       7
       -0.00000216926284199856       2       1      10       2
        0.00000059044173980052       2       1      10       8
       -0.00000216926284199856       2       1      11       1
        0.00000059044173980052       2       1      11       7
        0.37239455426080009248       2       1      11      10
       -0.00001735146468118582       2       1      12       3
        0.00000471818723774619       2       1      12       9
       -0.07136177078439524812       2       1      13       2
       -0.04770439412585907729       2       1      13       8
        0.00000026187713871123       2       1      13      11
       -0.07136177078439524812       2       1      14       1
       -0.04770439412585907729       2       1      14       7
        0.00000026187713871123       2       1      14      10
        0.30535891052733099560       2       1      14      13
        0.00000208935816604446       2       1      15      12
       -0.06937042574185954547       2       1      16       5
       -0.06937042574185954547       2       1      17       4
        0.31088355554163060734       2       1      17      16
        0.36527128633714972539       2       2       1       1
        0.36527128633714972539       2       2       2       2
        0.00529173041951760958       2       2       3       3
        0.32373073620843662024       2       2       4       4
        0.32373073620843662024       2       2       5       5
        0.00529162513359546314       2       2       6       6
        0.00200954728033532612       2       2       7       1
        0.33943251974373861435       2       2       7       7
        0.00200954728033532612       2       2       8       2
        0.33943251974373861435       2       2       8       8
       -0.00000000925186648236       2       2       9       3
        0.00529165801840412401       2       2       9       9
        0.00000216865725148815       2       2      10       1
       -0.00000058914905406016       2       2      10       7
        0.37504044754414511686       2       2      10      10
        0.00000216865725148815       2       2      11       2
       -0.00000058914905406016       2       2      11       8
        0.37504044754414511686       2       2      11      11
        0.00529182993751723361       2       2      12      12
       -0.07136178134341769619       2       2      13       1
       -0.04770440179633222283       2       2      13       7
       -0.00000026041402538290       2       2      13      10
        0.30800477051290742203       2       2      13      13
       -0.07136178134341769619       2       2      14       2
       -0.04770440179633222283       2       2      14       8
       -0.00000026041402538290       2       2      14      11
        0.30800477051290742203       2       2      14      14
       -0.00000008446820284121       2       2      15       3
       -0.00000006135943729631       2       2      15       9
        0.00529156357045136062       2       2      15      15
       -0.06937043874112151787       2       2      16       4
        0.31352941561164038298       2       2      16      16
       -0.06937043874112151787       2       2      17       5
        0.31352941561164038298       2       2      17      17
       -0.00000010398667354608       2       2      18       6
        0.00529156424597771076       2       2      18      18
        0.00529173041951760958       3       3       1       1
        0.00529173041951760958       3       3       2       2
        0.72789669369136855703       3       3       3       3
        0.00529162513366423885       3       3       4       4
        0.00529162513366423885       3       3       5       5
        0.64481559524488485380       3       3       6       6
       -0.00000000925156816235       3       3       7       1
        0.00529165801831399385       3       3       7       7
       -0.00000000925156816235       3       3       8       2
        0.00529165801831399385       3       3       8       8
        0.00401909998790017219       3       3       9       3
        0.67621914728883825152       3       3       9       9
        0.00001735146493374683       3       3      10       1
       -0.00000471818619461493       3       3      10       7
        0.00529182993778228635       3       3      10      10
        0.00001735146493374683       3       3      11       2
       -0.00000471818619461493       3       3      11       8
        0.00529182993778228635       3       3      11      11
        0.74743499491576592675       3       3      12      12
       -0.00000008446819624892       3       3      13       1
       -0.00000006135946518839       3       3      13       7
       -0.00000208935841598209       3       3      13      10
        0.00529156357051216962       3       3      13      13
       -0.00000008446819624892       3       3      14       2
       -0.00000006135946518839       3       3      14       8
       -0.00000208935841598209       3       3      14      11
        0.00529156357051216962       3       3      14      14
       -0.14272355993962160259       3       3      15       3
       -0.09540878799425070445       3       3      15       9
        0.61336369616888530842       3       3      15      15
       -0.00000010398666430044       3       3      16       4
        0.00529156424603260175       3       3      16      16
       -0.00000010398666430044       3       3      17       5
        0.00529156424603260175       3       3      17      17
       -0.13874085728845619858       3       3      18       6
        0.62441298036732084675       3       3      18      18
        0.07226072696542386320       4       1       4       1
        0.07226072696542386320       4       1       5       2
        0.01005005392476331950       4       1       7       4
        0.01005005392476331950       4       1       8       5
       -0.00000000007703812130       4       1      10       4
       -0.00000000007703812130       4       1      11       5
       -0.00000000061434515033       4       1      12       6
        0.02032376663572268982       4       1      13       4
        0.02032376663572268982       4       1      14       5
       -0.02024599792355439090       4       1      16       1
        0.03842282355700302882       4       1      16       7
       -0.00000000061764907994       4       1      16      10
        0.04946497580527157989       4       1      16      13
       -0.02024599792355439090       4       1      17       2
        0.03842282355700302882       4       1      17       8
       -0.00000000061764907994       4       1      17      11
        0.04946497580527157989       4       1      17      14
        0.00000000010708470688       4       1      18      12
        0.07226074029629134254       4       2       4       2
        0.07226074029629134254       4       2       5       1
        0.00000010664073396564       4       2       6       3
        0.01005005839434660979       4       2       7       5
        0.01005005839434660979       4       2       8       4
        0.00000003575258655643       4       2       9       6
       -0.00000000003863902596       4       2      10       5
       -0.00000000003863902596       4       2      11       4
        0.02032377978629637885       4       2      13       5
        0.02032377978629637885       4       2      14       4
        0.00000010519086397085       4       2      15       6
       -0.02024599566895622996       4       2      16       2
        0.03842283397272103218       4       2      16       8
       -0.00000000062434212931       4       2      16      11
        0.04946499257018768109       4       2      16      14
       -0.02024599566895622996       4       2      17       1
        0.03842283397272103218       4       2      17       7
       -0.00000000062434212931       4       2      17      10
        0.04946499257018768109       4       2      17      13
        0.00000001803238332709       4       2      18       3
        0.00000008331678838489       4       2      18       9
        0.00000013410164303750       4       2      18      15
        0.32373073620843662024       4       4       1       1
        0.32373073620843662024       4       4       2       2
        0.00529162513366423885       4       4       3       3
        0.31770710460582002321       4       4       4       4
        0.31770710460582002321       4       4       5       5
        0.00529152246768811643       4       4       6       6
        0.00347019165985936384       4       4       7       1
        0.30059282579957352644       4       4       7       7
        0.00347019165985936384       4       4       8       2
        0.30059282579957352644       4       4       8       8
        0.00000000417133287248       4       4       9       3
        0.00529154410534318428       4       4       9       9
        0.00000216888343901168       4       4      10       1
       -0.00000058953968757397       4       4      10       7
        0.31564502086737539210       4       4      10      10
        0.00000216888343901168       4       4      11       2
       -0.00000058953968757397       4       4      11       8
        0.31564502086737539210       4       4      11      11
        0.00529171765173819340       4       4      12      12
       -0.03775429711489587670       4       4      13       1
       -0.02153355615348524071       4       4      13       7
       -0.00000026086753808805       4       4      13      10
        0.28686686520261389655       4       4      13      13
       -0.03775429711489587670       4       4      14       2
       -0.02153355615348524071       4       4      14       8
       -0.00000026086753808805       4       4      14      11
        0.28686686520261389655       4       4      14      14
       -0.00000008230167872047       4       4      15       3
       -0.00000005210501666188       4       4      15       9
        0.00529147014492045882       4       4      15      15
       -0.04525483609364715915       4       4      16       4
        0.30669775849576541571       4       4      16      16
       -0.04525483609364715915       4       4      17       5
        0.30669775849576541571       4       4      17      17
       -0.00000009150215994763       4       4      18       6
        0.00529146493659826602       4       4      18      18
        0.07226074029629134254       5       1       4       2
        0.07226074029629134254       5       1       5       1
        0.00000010664073396564       5       1       6       3
        0.01005005839434660979       5       1       7       5
        0.01005005839434660979       5       1       8       4
        0.00000003575258655643       5       1       9       6
       -0.00000000003863902596       5       1      10       5
       -0.00000000003863902596       5       1      11       4
        0.02032377978629637885       5       1      13       5
        0.02032377978629637885       5       1      14       4
        0.00000010519086397085       5       1      15       6
       -0.02024599566895622996       5       1      16       2
        0.03842283397272103218       5       1      16       8
       -0.00000000062434212931       5       1      16      11
        0.04946499257018768109       5       1      16      14
       -0.02024599566895622996       5       1      17       1
        0.03842283397272103218       5       1      17       7
       -0.00000000062434212931       5       1      17      10
        0.04946499257018768109       5       1      17      13
        0.00000001803238332709       5       1      18       3
        0.00000008331678838489       5       1      18       9
        0.00000013410164303750       5       1      18      15
        0.07226072696542386320       5       2       4       1
        0.07226072696542386320       5       2       5       2
        0.01005005392476331950       5       2       7       4
        0.01005005392476331950       5       2       8       5
       -0.00000000007703812130       5       2      10       4
       -0.00000000007703812130       5       2      11       5
       -0.00000000061434515033       5       2      12       6
        0.02032376663572268982       5       2      13       4
        0.02032376663572268982       5       2      14       5
       -0.02024599792355439090       5       2      16       1
        0.03842282355700302882       5       2      16       7
       -0.00000000061764907994       5       2      16      10
        0.04946497580527157989       5       2      16      13
       -0.02024599792355439090       5       2      17       2
        0.03842282355700302882       5       2      17       8
       -0.00000000061764907994       5       2      17      11
        0.04946497580527157989       5       2      17      14
        0.00000000010708470688       5       2      18      12
        0.32108486852665668598       5       4       2       1
        0.31506124975935562160       5       4       5       4
        0.00347019113846061197       5       4       7       2
        0.00347019113846061197       5       4       8       1
        0.29794696824738531316       5       4       8       7
       -0.00000216896905109148       5       4      10       2
        0.00000059002663622987       5       4      10       8
       -0.00000216896905109148       5       4      11       1
        0.00000059002663622987       5       4      11       7
        0.31299914161926251088       5       4      11      10
       -0.00001735038309899322       5       4      12       3
        0.00000471779576620646       5       4      12       9
       -0.03775428682569602346       5       4      13       2
       -0.02153354963915595985       5       4      13       8
        0.00000026141616951229       5       4      13      11
       -0.03775428682569602346       5       4      14       1
       -0.02153354963915595985       5       4      14       7
        0.00000026141616951229       5       4      14      10
        0.28422101689774131872       5       4      14      13
        0.00000208923882179798       5       4      15      12
       -0.04525482465381078928       5       4      16       5
       -0.04525482465381078928       5       4      17       4
        0.30405191084204080676       5       4      17      16
        0.32373073620843662024       5       5       1       1
        0.32373073620843662024       5       5       2       2
        0.00529162513366423885       5       5       3       3
        0.31770710460582002321       5       5       4       4
        0.31770710460582002321       5       5       5       5
        0.00529152246768811643       5       5       6       6
        0.00347019165985936384       5       5       7       1
        0.30059282579957352644       5       5       7       7
        0.00347019165985936384       5       5       8       2
        0.30059282579957352644       5       5       8       8
        0.00000000417133287248       5       5       9       3
        0.00529154410534318428       5       5       9       9
        0.00000216888343901168       5       5      10       1
       -0.00000058953968757397       5       5      10       7
        0.31564502086737539210       5       5      10      10
        0.00000216888343901168       5       5      11       2
       -0.00000058953968757397       5       5      11       8
        0.31564502086737539210       5       5      11      11
        0.00529171765173819340       5       5      12      12
       -0.03775429711489587670       5       5      13       1
       -0.02153355615348524071       5       5      13       7
       -0.00000026086753808805       5       5      13      10
        0.28686686520261389655       5       5      13      13
       -0.03775429711489587670       5       5      14       2
       -0.02153355615348524071       5       5      14       8
       -0.00000026086753808805       5       5      14      11
        0.28686686520261389655       5       5      14      14
       -0.00000008230167872047       5       5      15       3
       -0.00000005210501666188       5       5      15       9
        0.00529147014492045882       5       5      15      15
       -0.04525483609364715915       5       5      16       4
        0.30669775849576541571       5       5      16      16
       -0.04525483609364715915       5       5      17       5
        0.30669775849576541571       5       5      17      17
       -0.00000009150215994763       5       5      18       6
        0.00529146493659826602       5       5      18      18
        0.00000010664073396564       6       3       4       2
        0.00000010664073396564       6       3       5       1
        0.14452146624408040987       6       3       6       3
        0.00000003575258511354       6       3       7       5
        0.00000003575258511354       6       3       8       4
        0.02010011306170628870       6       3       9       6
        0.00000000061434479203       6       3      10       5
        0.00000000061434479203       6       3      11       4
        0.00000010519086278555       6       3      13       5
        0.00000010519086278555       6       3      14       4
        0.04064755225145986334       6       3      15       6
        0.00000001803238348919       6       3      16       2
        0.00000008331678636234       6       3      16       8
       -0.00000000010708596837       6       3      16      11
        0.00000013410165395137       6       3      16      14
        0.00000001803238348919       6       3      17       1
        0.00000008331678636234       6       3      17       7
       -0.00000000010708596837       6       3      17      10
        0.00000013410165395137       6       3      17      13
       -0.04049199094871772098       6       3      18       3
        0.07684566275275518665       6       3      18       9
        0.09892996601914563759       6       3      18      15
        0.00529162513359546314       6       6       1       1
        0.00529162513359546314       6       6       2       2
        0.64481559524488485380       6       6       3       3
        0.00529152246768811643       6       6       4       4
        0.00529152246768811643       6       6       5       5
        0.63276834065736453638       6       6       6       6
        0.00000000417162895078       6       6       7       1
        0.00529154410518801500       6       6       7       7
        0.00000000417162895078       6       6       8       2
        0.00529154410518801500       6       6       8       8
        0.00694038257711203539       6       6       9       3
        0.59853977711085237789       6       6       9       9
        0.00001735038335087669       6       6      10       1
       -0.00000471779472298494       6       6      10       7
        0.00529171765193725378       6       6      10      10
        0.00001735038335087669       6       6      11       2
       -0.00000471779472298494       6       6      11       8
        0.00529171765193725378       6       6      11      11
        0.62864414810038715675       6       6      12      12
       -0.00000008230167239798       6       6      13       1
       -0.00000005210504720786       6       6      13       7
       -0.00000208923907180033       6       6      13      10
        0.00529147014491250425       6       6      13      13
       -0.00000008230167239798       6       6      14       2
       -0.00000005210504720786       6       6      14       8
       -0.00000208923907180033       6       6      14      11
        0.00529147014491250425       6       6      14      14
       -0.07550858065485947790       6       6      15       3
       -0.04306709705295647811       6       6      15       9
        0.57108788298649726389       6       6      15      15
       -0.00000009150215324715       6       6      16       4
        0.00529146493658562162       6       6      16      16
       -0.00000009150215324715       6       6      17       5
        0.00529146493658562162       6       6      17      17
       -0.09050965005091050897       6       6      18       6
        0.61074966908106875785       6       6      18      18
        0.00200954728033532612       7       1       1       1
        0.00200954728033532612       7       1       2       2
       -0.00000000925156816235       7       1       3       3
        0.00347019165985936384       7       1       4       4
        0.00347019165985936384       7       1       5       5
        0.00000000417162895078       7       1       6       6
        0.06208974045669898162       7       1       7       1
       -0.05227261864631550792       7       1       7       7
        0.06208974045669898162       7       1       8       2
       -0.05227261864631550792       7       1       8       8
        0.00000006917033239285       7       1       9       3
       -0.00000005374701703896       7       1       9       9
        0.00000000025369533822       7       1      10       1
       -0.00000000000576003926       7       1      10       7
       -0.03424150212259349790       7       1      10      10
        0.00000000025369533822       7       1      11       2
       -0.00000000000576003926       7       1      11       8
       -0.03424150212259349790       7       1      11      11
       -0.00000004526411264135       7       1      12      12
       -0.01053622770604942943       7       1      13       1
        0.01526295014561603047       7       1      13       7
       -0.00000000072855300403       7       1      13      10
        0.02939334124950516991       7       1      13      13
       -0.01053622770604942943       7       1      14       2
        0.01526295014561603047       7       1      14       8
       -0.00000000072855300403       7       1      14      11
        0.02939334124950516991       7       1      14      14
        0.00000001110897601173       7       1      15       3
        0.00000004764915016896       7       1      15       9
        0.00000005175941889366       7       1      15      15
        0.03789493957086650933       7       1      16       4
       -0.00704302405248433041       7       1      16      16
        0.03789493957086650933       7       1      17       5
       -0.00704302405248433041       7       1      17      17
        0.00000006426770419824       7       1      18       6
        0.00000002143408341736       7       1      18      18
        0.00200954843683133011       7       2       2       1
        0.00347019113846061197       7       2       5       4
        0.06208973181019913218       7       2       7       2
        0.06208973181019913218       7       2       8       1
       -0.05227261192769246112       7       2       8       7
        0.00000000027416984861       7       2      10       2
       -0.00000000004269726396       7       2      10       8
        0.00000000027416984861       7       2      11       1
       -0.00000000004269726396       7       2      11       7
       -0.03424149646484884318       7       2      11      10
        0.00000000032757064466       7       2      12       3
       -0.00000000059097176089       7       2      12       9
       -0.01053622909476903922       7       2      13       2
        0.01526294418902224975       7       2      13       8
       -0.00000000072749463505       7       2      13      11
       -0.01053622909476903922       7       2      14       1
        0.01526294418902224975       7       2      14       7
       -0.00000000072749463505       7       2      14      10
        0.02939333477906427156       7       2      14      13
        0.00000000001692598629       7       2      15      12
        0.03789493153690848271       7       2      16       5
        0.03789493153690848271       7       2      17       4
       -0.00704302673216322499       7       2      17      16
        0.01005005392476331950       7       4       4       1
        0.01005005392476331950       7       4       5       2
        0.02355827246395002933       7       4       7       4
        0.02355827246395002933       7       4       8       5
       -0.00000000013361558646       7       4      10       4
       -0.00000000013361558646       7       4      11       5
       -0.00000000020593849792       7       4      12       6
        0.01434209795459642951       7       4      13       4
        0.01434209795459642951       7       4      14       5
        0.01692737771021141091       7       4      16       1
       -0.00119840064902961593       7       4      16       7
       -0.00000000013713146204       7       4      16      10
        0.02381044590146124892       7       4      16      13
        0.01692737771021141091       7       4      17       2
       -0.00119840064902961593       7       4      17       8
       -0.00000000013713146204       7       4      17      11
        0.02381044590146124892       7       4      17      14
        0.00000000003587491164       7       4      18      12
        0.01005005839434660979       7       5       4       2
        0.01005005839434660979       7       5       5       1
        0.00000003575258511354       7       5       6       3
        0.02355827396262948070       7       5       7       5
        0.02355827396262948070       7       5       8       4
        0.00000001199013772411       7       5       9       6
       -0.00000000012074154771       7       5      10       5
       -0.00000000012074154771       7       5      11       4
        0.01434210236383449966       7       5      13       5
        0.01434210236383449966       7       5      14       4
        0.00000003526982101859       7       5      15       6
        0.01692737846624357140       7       5      16       2
       -0.00119839715679878091       7       5      16       8
       -0.00000000013937509826       7       5      16      11
        0.02381045152260269013       7       5      16      14
        0.01692737846624357140       7       5      17       1
       -0.00119839715679878091       7       5      17       7
       -0.00000000013937509826       7       5      17      10
        0.02381045152260269013       7       5      17      13
        0.00000000604905374356       7       5      18       3
        0.00000002793426646300       7       5      18       9
        0.00000004496519168478       7       5      18      15
        0.33943251974373861435       7       7       1       1
        0.33943251974373861435       7       7       2       2
        0.00529165801831399385       7       7       3       3
        0.30059282579957352644       7       7       4       4
        0.30059282579957352644       7       7       5       5
        0.00529154410518801500       7       7       6       6
       -0.05227261864631550792       7       7       7       1
        0.39318123934342158465       7       7       7       7
       -0.05227261864631545241       7       7       8       2
        0.39318123934342158465       7       7       8       8
       -0.00000005374730351595       7       7       9       3